# vtk DataFile Version 3.0
vtk output
ASCII
DATASET STRUCTURED_GRID
DIMENSIONS 2 4 1
POINTS 8 float
0 0 0
1 0 0
0 1 0
1 1 0
0 2 1
1 2 1
0 3 1
1 3 1
CELL_DATA 3
SCALARS cellData float 3
LOOKUP_TABLE default
0.1 1 3
0.2 2 1
0.3 3 5