# vtk DataFile Version 3.0
vtk output
ASCII
DATASET STRUCTURED_GRID
DIMENSIONS 100 100 1
POINTS 10000 float
0.000000 0.000000 0
0.000000 0.100000 0
0.000000 0.200000 0
0.000000 0.300000 0
0.000000 0.400000 0
0.000000 0.500000 0
0.000000 0.600000 0
0.000000 0.700000 0
0.000000 0.800000 0
0.000000 0.900000 0
0.000000 1.000000 0
0.000000 1.100000 0
0.000000 1.200000 0
0.000000 1.300000 0
0.000000 1.400000 0
0.000000 1.500000 0
0.000000 1.600000 0
0.000000 1.700000 0
0.000000 1.800000 0
0.000000 1.900000 0
0.000000 2.000000 0
0.000000 2.100000 0
0.000000 2.200000 0
0.000000 2.300000 0
0.000000 2.400000 0
0.000000 2.500000 0
0.000000 2.600000 0
0.000000 2.700000 0
0.000000 2.800000 0
0.000000 2.900000 0
0.000000 3.000000 0
0.000000 3.100000 0
0.000000 3.200000 0
0.000000 3.300000 0
0.000000 3.400000 0
0.000000 3.500000 0
0.000000 3.600000 0
0.000000 3.700000 0
0.000000 3.800000 0
0.000000 3.900000 0
0.000000 4.000000 0
0.000000 4.100000 0
0.000000 4.200000 0
0.000000 4.300000 0
0.000000 4.400000 0
0.000000 4.500000 0
0.000000 4.600000 0
0.000000 4.700000 0
0.000000 4.800000 0
0.000000 4.900000 0
0.000000 5.000000 0
0.000000 5.100000 0
0.000000 5.200000 0
0.000000 5.300000 0
0.000000 5.400000 0
0.000000 5.500000 0
0.000000 5.600000 0
0.000000 5.700000 0
0.000000 5.800000 0
0.000000 5.900000 0
0.000000 6.000000 0
0.000000 6.100000 0
0.000000 6.200000 0
0.000000 6.300000 0
0.000000 6.400000 0
0.000000 6.500000 0
0.000000 6.600000 0
0.000000 6.700000 0
0.000000 6.800000 0
0.000000 6.900000 0
0.000000 7.000000 0
0.000000 7.100000 0
0.000000 7.200000 0
0.000000 7.300000 0
0.000000 7.400000 0
0.000000 7.500000 0
0.000000 7.600000 0
0.000000 7.700000 0
0.000000 7.800000 0
0.000000 7.900000 0
0.000000 8.000000 0
0.000000 8.100000 0
0.000000 8.200000 0
0.000000 8.300000 0
0.000000 8.400000 0
0.000000 8.500000 0
0.000000 8.600000 0
0.000000 8.700000 0
0.000000 8.800000 0
0.000000 8.900000 0
0.000000 9.000000 0
0.000000 9.100000 0
0.000000 9.200000 0
0.000000 9.300000 0
0.000000 9.400000 0
0.000000 9.500000 0
0.000000 9.600000 0
0.000000 9.700000 0
0.000000 9.800000 0
0.000000 9.900000 0
0.100000 0.000000 0
0.100000 0.100000 0
0.100000 0.200000 0
0.100000 0.300000 0
0.100000 0.400000 0
0.100000 0.500000 0
0.100000 0.600000 0
0.100000 0.700000 0
0.100000 0.800000 0
0.100000 0.900000 0
0.100000 1.000000 0
0.100000 1.100000 0
0.100000 1.200000 0
0.100000 1.300000 0
0.100000 1.400000 0
0.100000 1.500000 0
0.100000 1.600000 0
0.100000 1.700000 0
0.100000 1.800000 0
0.100000 1.900000 0
0.100000 2.000000 0
0.100000 2.100000 0
0.100000 2.200000 0
0.100000 2.300000 0
0.100000 2.400000 0
0.100000 2.500000 0
0.100000 2.600000 0
0.100000 2.700000 0
0.100000 2.800000 0
0.100000 2.900000 0
0.100000 3.000000 0
0.100000 3.100000 0
0.100000 3.200000 0
0.100000 3.300000 0
0.100000 3.400000 0
0.100000 3.500000 0
0.100000 3.600000 0
0.100000 3.700000 0
0.100000 3.800000 0
0.100000 3.900000 0
0.100000 4.000000 0
0.100000 4.100000 0
0.100000 4.200000 0
0.100000 4.300000 0
0.100000 4.400000 0
0.100000 4.500000 0
0.100000 4.600000 0
0.100000 4.700000 0
0.100000 4.800000 0
0.100000 4.900000 0
0.100000 5.000000 0
0.100000 5.100000 0
0.100000 5.200000 0
0.100000 5.300000 0
0.100000 5.400000 0
0.100000 5.500000 0
0.100000 5.600000 0
0.100000 5.700000 0
0.100000 5.800000 0
0.100000 5.900000 0
0.100000 6.000000 0
0.100000 6.100000 0
0.100000 6.200000 0
0.100000 6.300000 0
0.100000 6.400000 0
0.100000 6.500000 0
0.100000 6.600000 0
0.100000 6.700000 0
0.100000 6.800000 0
0.100000 6.900000 0
0.100000 7.000000 0
0.100000 7.100000 0
0.100000 7.200000 0
0.100000 7.300000 0
0.100000 7.400000 0
0.100000 7.500000 0
0.100000 7.600000 0
0.100000 7.700000 0
0.100000 7.800000 0
0.100000 7.900000 0
0.100000 8.000000 0
0.100000 8.100000 0
0.100000 8.200000 0
0.100000 8.300000 0
0.100000 8.400000 0
0.100000 8.500000 0
0.100000 8.600000 0
0.100000 8.700000 0
0.100000 8.800000 0
0.100000 8.900000 0
0.100000 9.000000 0
0.100000 9.100000 0
0.100000 9.200000 0
0.100000 9.300000 0
0.100000 9.400000 0
0.100000 9.500000 0
0.100000 9.600000 0
0.100000 9.700000 0
0.100000 9.800000 0
0.100000 9.900000 0
0.200000 0.000000 0
0.200000 0.100000 0
0.200000 0.200000 0
0.200000 0.300000 0
0.200000 0.400000 0
0.200000 0.500000 0
0.200000 0.600000 0
0.200000 0.700000 0
0.200000 0.800000 0
0.200000 0.900000 0
0.200000 1.000000 0
0.200000 1.100000 0
0.200000 1.200000 0
0.200000 1.300000 0
0.200000 1.400000 0
0.200000 1.500000 0
0.200000 1.600000 0
0.200000 1.700000 0
0.200000 1.800000 0
0.200000 1.900000 0
0.200000 2.000000 0
0.200000 2.100000 0
0.200000 2.200000 0
0.200000 2.300000 0
0.200000 2.400000 0
0.200000 2.500000 0
0.200000 2.600000 0
0.200000 2.700000 0
0.200000 2.800000 0
0.200000 2.900000 0
0.200000 3.000000 0
0.200000 3.100000 0
0.200000 3.200000 0
0.200000 3.300000 0
0.200000 3.400000 0
0.200000 3.500000 0
0.200000 3.600000 0
0.200000 3.700000 0
0.200000 3.800000 0
0.200000 3.900000 0
0.200000 4.000000 0
0.200000 4.100000 0
0.200000 4.200000 0
0.200000 4.300000 0
0.200000 4.400000 0
0.200000 4.500000 0
0.200000 4.600000 0
0.200000 4.700000 0
0.200000 4.800000 0
0.200000 4.900000 0
0.200000 5.000000 0
0.200000 5.100000 0
0.200000 5.200000 0
0.200000 5.300000 0
0.200000 5.400000 0
0.200000 5.500000 0
0.200000 5.600000 0
0.200000 5.700000 0
0.200000 5.800000 0
0.200000 5.900000 0
0.200000 6.000000 0
0.200000 6.100000 0
0.200000 6.200000 0
0.200000 6.300000 0
0.200000 6.400000 0
0.200000 6.500000 0
0.200000 6.600000 0
0.200000 6.700000 0
0.200000 6.800000 0
0.200000 6.900000 0
0.200000 7.000000 0
0.200000 7.100000 0
0.200000 7.200000 0
0.200000 7.300000 0
0.200000 7.400000 0
0.200000 7.500000 0
0.200000 7.600000 0
0.200000 7.700000 0
0.200000 7.800000 0
0.200000 7.900000 0
0.200000 8.000000 0
0.200000 8.100000 0
0.200000 8.200000 0
0.200000 8.300000 0
0.200000 8.400000 0
0.200000 8.500000 0
0.200000 8.600000 0
0.200000 8.700000 0
0.200000 8.800000 0
0.200000 8.900000 0
0.200000 9.000000 0
0.200000 9.100000 0
0.200000 9.200000 0
0.200000 9.300000 0
0.200000 9.400000 0
0.200000 9.500000 0
0.200000 9.600000 0
0.200000 9.700000 0
0.200000 9.800000 0
0.200000 9.900000 0
0.300000 0.000000 0
0.300000 0.100000 0
0.300000 0.200000 0
0.300000 0.300000 0
0.300000 0.400000 0
0.300000 0.500000 0
0.300000 0.600000 0
0.300000 0.700000 0
0.300000 0.800000 0
0.300000 0.900000 0
0.300000 1.000000 0
0.300000 1.100000 0
0.300000 1.200000 0
0.300000 1.300000 0
0.300000 1.400000 0
0.300000 1.500000 0
0.300000 1.600000 0
0.300000 1.700000 0
0.300000 1.800000 0
0.300000 1.900000 0
0.300000 2.000000 0
0.300000 2.100000 0
0.300000 2.200000 0
0.300000 2.300000 0
0.300000 2.400000 0
0.300000 2.500000 0
0.300000 2.600000 0
0.300000 2.700000 0
0.300000 2.800000 0
0.300000 2.900000 0
0.300000 3.000000 0
0.300000 3.100000 0
0.300000 3.200000 0
0.300000 3.300000 0
0.300000 3.400000 0
0.300000 3.500000 0
0.300000 3.600000 0
0.300000 3.700000 0
0.300000 3.800000 0
0.300000 3.900000 0
0.300000 4.000000 0
0.300000 4.100000 0
0.300000 4.200000 0
0.300000 4.300000 0
0.300000 4.400000 0
0.300000 4.500000 0
0.300000 4.600000 0
0.300000 4.700000 0
0.300000 4.800000 0
0.300000 4.900000 0
0.300000 5.000000 0
0.300000 5.100000 0
0.300000 5.200000 0
0.300000 5.300000 0
0.300000 5.400000 0
0.300000 5.500000 0
0.300000 5.600000 0
0.300000 5.700000 0
0.300000 5.800000 0
0.300000 5.900000 0
0.300000 6.000000 0
0.300000 6.100000 0
0.300000 6.200000 0
0.300000 6.300000 0
0.300000 6.400000 0
0.300000 6.500000 0
0.300000 6.600000 0
0.300000 6.700000 0
0.300000 6.800000 0
0.300000 6.900000 0
0.300000 7.000000 0
0.300000 7.100000 0
0.300000 7.200000 0
0.300000 7.300000 0
0.300000 7.400000 0
0.300000 7.500000 0
0.300000 7.600000 0
0.300000 7.700000 0
0.300000 7.800000 0
0.300000 7.900000 0
0.300000 8.000000 0
0.300000 8.100000 0
0.300000 8.200000 0
0.300000 8.300000 0
0.300000 8.400000 0
0.300000 8.500000 0
0.300000 8.600000 0
0.300000 8.700000 0
0.300000 8.800000 0
0.300000 8.900000 0
0.300000 9.000000 0
0.300000 9.100000 0
0.300000 9.200000 0
0.300000 9.300000 0
0.300000 9.400000 0
0.300000 9.500000 0
0.300000 9.600000 0
0.300000 9.700000 0
0.300000 9.800000 0
0.300000 9.900000 0
0.400000 0.000000 0
0.400000 0.100000 0
0.400000 0.200000 0
0.400000 0.300000 0
0.400000 0.400000 0
0.400000 0.500000 0
0.400000 0.600000 0
0.400000 0.700000 0
0.400000 0.800000 0
0.400000 0.900000 0
0.400000 1.000000 0
0.400000 1.100000 0
0.400000 1.200000 0
0.400000 1.300000 0
0.400000 1.400000 0
0.400000 1.500000 0
0.400000 1.600000 0
0.400000 1.700000 0
0.400000 1.800000 0
0.400000 1.900000 0
0.400000 2.000000 0
0.400000 2.100000 0
0.400000 2.200000 0
0.400000 2.300000 0
0.400000 2.400000 0
0.400000 2.500000 0
0.400000 2.600000 0
0.400000 2.700000 0
0.400000 2.800000 0
0.400000 2.900000 0
0.400000 3.000000 0
0.400000 3.100000 0
0.400000 3.200000 0
0.400000 3.300000 0
0.400000 3.400000 0
0.400000 3.500000 0
0.400000 3.600000 0
0.400000 3.700000 0
0.400000 3.800000 0
0.400000 3.900000 0
0.400000 4.000000 0
0.400000 4.100000 0
0.400000 4.200000 0
0.400000 4.300000 0
0.400000 4.400000 0
0.400000 4.500000 0
0.400000 4.600000 0
0.400000 4.700000 0
0.400000 4.800000 0
0.400000 4.900000 0
0.400000 5.000000 0
0.400000 5.100000 0
0.400000 5.200000 0
0.400000 5.300000 0
0.400000 5.400000 0
0.400000 5.500000 0
0.400000 5.600000 0
0.400000 5.700000 0
0.400000 5.800000 0
0.400000 5.900000 0
0.400000 6.000000 0
0.400000 6.100000 0
0.400000 6.200000 0
0.400000 6.300000 0
0.400000 6.400000 0
0.400000 6.500000 0
0.400000 6.600000 0
0.400000 6.700000 0
0.400000 6.800000 0
0.400000 6.900000 0
0.400000 7.000000 0
0.400000 7.100000 0
0.400000 7.200000 0
0.400000 7.300000 0
0.400000 7.400000 0
0.400000 7.500000 0
0.400000 7.600000 0
0.400000 7.700000 0
0.400000 7.800000 0
0.400000 7.900000 0
0.400000 8.000000 0
0.400000 8.100000 0
0.400000 8.200000 0
0.400000 8.300000 0
0.400000 8.400000 0
0.400000 8.500000 0
0.400000 8.600000 0
0.400000 8.700000 0
0.400000 8.800000 0
0.400000 8.900000 0
0.400000 9.000000 0
0.400000 9.100000 0
0.400000 9.200000 0
0.400000 9.300000 0
[...]
POINT_DATA 10000
SCALARS cellData float 1
LOOKUP_TABLE default
12.503855
12.576782
12.643649
12.703275
12.754636
12.796985
12.829958
12.853618
12.868451
12.875298
12.875246
12.869507
12.859310
12.845817
12.830072
12.812978
12.795303
12.777691
12.760689
12.744782
12.730426
12.718089
12.708303
12.701732
12.699284
12.702293
12.712881
12.734733
12.775011
12.850049
13.006518
13.340038
13.101777
12.852057
12.726432
12.649437
12.596935
12.559402
12.532410
12.513709
12.502140
12.497174
12.498692
12.506897
12.522285
12.545665
12.578220
12.621635
12.678306
12.751698
12.846979
12.972198
13.140643
13.376029
13.725382
14.295746
15.351291
16.476074
15.126474
14.122084
13.554546
13.186898
12.924017
12.723180
12.562405
12.429147
12.315657
12.216845
12.129198
12.050187
11.977929
11.910977
11.848195
11.788667
11.731648
11.676520
11.622770
11.569968
11.517758
11.465847
11.413996
11.362020
11.309780
11.257179
11.204162
11.150710
11.096840
11.042596
10.988053
10.933306
10.878469
10.823661
10.768986
10.714491
10.660090
10.605446
10.549871
10.492430
10.432458
10.370129
12.665237
12.746177
12.820322
12.886047
12.941906
12.986825
13.020266
13.042324
13.053703
13.055606
13.049550
13.037179
13.020101
12.999773
12.977447
12.954158
12.930737
12.907850
12.886035
12.865746
12.847399
12.831423
12.818308
12.808684
12.803430
12.803871
12.812142
12.832013
12.870949
12.946571
13.114457
13.593197
13.229030
12.943863
12.811725
12.731774
12.677227
12.638016
12.609552
12.589530
12.576769
12.570730
12.571294
12.578672
12.593367
12.616204
12.648393
12.691659
12.748464
12.822389
12.918820
13.046245
13.218942
13.463205
13.834336
14.476500
15.958562
20.903171
15.609333
14.287820
13.661404
13.275440
13.005282
12.801236
12.639072
12.505354
12.391925
12.293484
12.206396
12.128056
12.056527
11.990322
11.928268
11.869423
11.813014
11.758399
11.705045
11.652504
11.600403
11.548438
11.496362
11.443986
11.391170
11.337826
11.283908
11.229413
11.174380
11.118882
11.063030
11.006967
10.950867
10.894934
10.839389
10.784431
10.730140
10.676232
10.621626
10.564223
10.502101
10.435638
12.836971
12.927954
13.011380
13.084979
13.146654
13.194807
13.228629
13.248258
13.254755
13.249893
13.235847
13.214883
13.189116
13.160371
13.130131
13.099547
13.069487
13.040596
13.013358
12.988159
12.965334
12.945222
12.928221
12.914848
12.905835
12.902263
12.905811
12.919198
12.946989
12.996650
13.075121
13.144156
13.083910
12.963879
12.868692
12.799790
12.748944
12.710774
12.682220
12.661573
12.647917
12.640837
12.640275
12.646462
12.659897
12.681378
12.712056
12.753556
12.808164
12.879153
12.971327
13.092011
13.252897
13.473716
13.789682
14.263701
14.955771
15.409826
14.815704
14.114180
13.630457
13.293922
13.045823
12.853502
12.698455
12.569543
12.459655
12.364013
12.279255
12.202929
12.133179
12.068563
12.007932
11.950348
11.895036
11.841348
11.788737
11.736745
11.684989
11.633154
11.580988
11.528301
11.474956
11.420871
11.366016
11.310407
11.254107
11.197223
11.139905
11.082349
11.024803
10.967575
10.911048
10.855693
10.802023
10.750328
10.699589
10.645158
10.580285
10.506226
13.020155
13.123921
13.219447
13.303499
13.372955
13.425349
13.459403
13.475340
13.474823
13.460561
13.435753
13.403569
13.366803
13.327715
13.288012
13.248918
13.211277
13.175649
13.142409
13.111816
13.084077
13.059400
13.038037
13.020335
13.006788
12.998103
12.995280
12.999645
13.012656
13.034597
13.059735
13.067739
13.035959
12.975815
12.912955
12.858534
12.814078
12.778581
12.750868
12.730086
12.715733
12.707597
12.705716
12.710350
12.721980
12.741336
12.769440
12.807698
12.858029
12.923068
13.006481
13.113411
13.251085
13.429271
13.658907
13.941244
14.223944
14.335944
14.154204
13.829890
13.518780
13.261331
13.053342
12.883582
12.742435
12.622791
12.519521
12.428891
12.348118
12.275086
12.208137
12.145947
12.087435
12.031701
11.977989
11.925656
11.874152
11.823013
11.771848
11.720335
11.668219
11.615307
11.561469
11.506634
11.450785
11.393963
11.336259
11.277814
11.218822
11.159532
11.100264
11.041433
10.983603
10.927592
10.874659
10.826788
10.786244
10.746870
10.676663
10.583047
13.215827
13.336117
13.447787
13.546163
13.626446
13.684664
13.718704
13.728937
13.718105
13.690521
13.651017
13.604081
13.553380
13.501637
13.450721
13.401827
13.355663
13.312613
13.272859
13.236472
13.203478
13.173911
13.147842
13.125410
13.106845
13.092466
13.082649
13.077682
13.077333
13.079839
13.080240
13.070146
13.043331
13.002836
12.957439
12.913951
12.875465
12.842894
12.816306
12.795559
12.780543
12.771257
12.767839
12.770574
12.779909
12.796474
12.821119
12.854957
12.899436
12.956417
13.028251
13.117789
13.228136
13.361571
13.516242
13.678000
13.807709
13.844824
13.758976
13.588353
13.392388
13.206115
13.041146
12.898256
12.774742
12.667295
12.572901
12.489039
12.413644
12.345034
12.281820
12.222845
12.167127
12.113829
12.062224
12.011685
11.961666
11.911698
11.861383
11.810392
11.758467
11.705414
11.651110
11.595494
11.538571
11.480406
11.421122
11.360897
11.299969
11.238634
11.177272
11.116381
11.056655
10.999180
10.945889
10.900968
10.876435
10.921467
10.817371
10.659923
13.424763
13.566694
13.700420
13.819121
13.915178
13.981865
14.015454
14.016613
13.990140
13.943225
13.883366
13.816934
13.748626
13.681542
13.617524
13.557539
13.501990
13.450943
13.404288
13.361834
13.323375
13.288732
13.257771
13.230418
13.206648
13.186460
13.169798
13.156393
13.145455
13.135229
13.122687
13.104175
13.077516
13.043833
13.006689
12.969740
12.935456
12.905150
12.879434
12.858588
12.842778
12.832168
12.826973
12.827490
12.834117
12.847371
12.867904
12.896522
12.934193
12.982036
13.041244
13.112874
13.197304
13.293063
13.394568
13.488874
13.554060
13.565876
13.514127
13.411691
13.283184
13.149282
13.021585
12.904762
12.799739
12.705786
12.621579
12.545678
12.476714
12.413448
12.354780
12.299735
12.247451
12.197157
12.148169
12.099874
12.051731
12.003265
11.954072
11.903813
11.852223
11.799108
11.744351
11.687905
11.629798
11.570124
11.509042
11.446771
11.383590
11.319837
11.255932
11.192407
11.129983
11.069756
11.013626
10.965578
10.936285
10.956584
10.860668
10.713306
13.647056
13.817572
13.982120
14.130790
14.251112
14.330988
14.363308
14.349377
14.298240
14.222525
14.134113
14.041906
13.951559
13.866182
13.787185
13.714962
13.649353
13.589935
13.536182
13.487562
13.443590
13.403842
13.367972
13.335697
13.306778
13.280981
13.258001
13.237346
13.218181
13.199188
13.178612
13.154723
13.126636
13.094882
13.061149
13.027455
12.995496
12.966448
12.941049
12.919761
12.902901
12.890731
12.883511
12.881530
12.885128
12.894705
12.910722
12.933700
12.964188
13.002704
13.049595
13.104777
13.167252
13.234312
13.300468
13.356608
13.390743
13.391869
13.355776
13.287728
13.199043
13.101315
13.002991
12.908940
12.821387
12.740957
12.667421
12.600143
12.538319
12.481101
12.427652
12.377176
12.328920
12.282185
12.236321
12.190731
12.144873
12.098262
12.050479
12.001173
11.950067
11.896965
11.841753
11.784403
11.724968
11.663578
11.600433
11.535799
11.469997
11.403404
11.336461
11.269690
11.203741
11.139479
11.078132
11.021444
10.970888
10.919868
10.843163
10.746368
13.881368
14.089616
14.297997
14.492684
14.652829
14.755104
14.784492
14.743833
14.651867
14.532060
14.403324
14.277354
14.159989
14.053411
13.957845
13.872591
13.796595
13.728732
13.667941
13.613277
13.563931
13.519222
13.478585
13.441548
13.407703
13.376658
13.347982
13.321135
13.295396
13.269842
13.243445
13.215320
13.185082
13.153041
13.120112
13.087487
13.056308
13.027505
13.001767
12.979593
12.961355
12.947356
12.937867
12.933156
12.933497
12.939180
12.950500
12.967741
12.991127
13.020750
13.056427
13.097485
13.142426
13.188512
13.231372
13.264996
13.282614
13.278687
13.251194
13.202590
13.138581
13.065775
12.989826
12.914694
12.842733
12.775092
12.712127
12.653714
12.599451
12.548792
12.501115
12.455771
12.412104
12.369470
12.327247
12.284841
12.241701
12.197324
12.151265
12.103151
12.052687
11.999668
11.943986
11.885627
11.824678
11.761313
11.695784
11.628413
11.559571
11.489677
11.419186
11.348593
11.278439
11.209306
11.141763
11.076075
11.011215
10.943057
10.866066
10.781313
14.123711
14.380843
14.651859
14.919935
15.150687
15.295559
15.318201
15.225803
15.062226
14.873425
14.688159
14.519167
14.369974
14.239948
14.126951
14.028517
13.942328
13.866363
13.798920
13.738589
13.684216
13.634857
13.589742
13.548233
13.509786
13.473910
13.440122
13.407903
13.376669
13.345782
13.314620
13.282713
13.249896
13.216389
13.182755
13.149754
13.118176
13.088735
13.062018
13.038492
13.018527
13.002425
12.990445
12.982820
12.979761
12.981462
12.988083
12.999728
13.016395
13.037910
13.063810
13.093193
13.124528
13.155473
13.182789
13.202548
13.210755
13.204372
13.182316
13.145846
13.098057
13.042847
12.983925
12.924241
12.865830
12.809917
12.757095
12.707514
12.661027
12.617292
12.575844
12.536143
12.497603
12.459616
12.421570
12.382861
12.342912
12.301186
12.257201
12.210546
12.160897
12.108033
12.051843
11.992335
11.929634
11.863971
11.795668
11.725116
11.652757
11.579060
11.504505
11.429573
11.354719
11.280338
11.206657
11.133521
11.060019
10.984375
10.905013
10.822317
14.365775
14.683036
15.041333
15.429042
15.796594
16.036135
16.041559
15.835544
15.538433
15.241547
14.980050
14.759474
14.575375
14.421305
14.291318
14.180521
14.085037
14.001821
13.928485
13.863144
13.804304
13.750773
13.701595
13.655993
13.613324
13.573037
13.534634
13.497642
13.461598
13.426058
13.390643
13.355104
13.319393
13.283694
13.248397
13.214031
13.181168
13.150358
13.122088
13.096769
13.074738
13.056274
13.041608
13.030933
13.024403
13.022132
13.024179
13.030523
13.041021
13.055353
13.072945
13.092872
13.113768
13.133762
13.150517
13.161431
13.164042
13.156569
13.138378
13.110159
13.073700
13.031379
12.985642
12.938609
12.891900
12.846610
12.803372
12.762450
12.723832
12.687298
12.652481
12.618910
12.586036
12.553265
12.519972
12.485522
12.449294
12.410697
12.369188
12.324303
12.275668
12.223033
12.166278
12.105434
12.040675
11.972307
11.900747
11.826483
11.750050
11.671992
11.592838
11.513082
11.433148
11.353355
11.273844
11.194477
11.114763
11.033980
10.951633
10.867939
14.593523
14.976796
15.446124
16.022596
16.677846
17.181951
17.131580
16.627239
16.071735
15.615208
15.261118
14.985781
14.767920
14.592076
14.447419
14.326305
14.223238
14.134180
14.056100
13.986685
13.924141
13.867064
13.814344
13.765097
13.718610
13.674302
13.631685
13.590339
13.549903
13.510073
13.470626
13.431449
13.392568
13.354160
13.316531
13.280081
13.245251
13.212476
13.182157
13.154646
13.130239
13.109180
13.091665
13.077847
13.067830
13.061667
13.059345
13.060763
13.065701
13.073780
13.084412
13.096750
13.109647
13.121659
13.131105
13.136231
13.135461
13.127689
13.112524
13.090367
13.062299
13.029828
12.994584
12.958077
12.921543
12.885885
12.851677
12.819203
12.788500
12.759408
12.731609
12.704661
12.678023
12.651086
12.623186
12.593636
12.561742
12.526833
12.488282
12.445540
12.398163
12.345844
12.288447
12.226020
12.158804
12.087211
12.011785
11.933156
11.851985
11.768925
11.684584
11.599501
11.514121
11.428765
11.343601
11.258611
11.173604
11.088322
11.002634
10.916703
14.787988
15.228505
15.809225
16.630780
17.875367
19.431793
19.080454
17.598392
16.590837
15.945006
15.502964
15.182053
14.938359
14.746777
14.591928
14.463836
14.355709
14.262744
14.181427
14.109123
14.043815
13.983942
13.928282
13.875879
13.825981
13.778001
13.731477
13.686053
13.641455
13.597491
13.554056
13.511133
13.468809
13.427271
13.386791
13.347699
13.310356
13.275121
13.242327
13.212274
13.185215
13.161357
13.140861
13.123842
13.110362
13.100430
13.093983
13.090878
13.090860
13.093544
13.098380
13.104635
13.111381
13.117515
13.121826
13.123109
13.120322
13.112751
13.100145
13.082750
13.061254
13.036643
13.010027
12.982481
12.954932
12.928094
12.902446
12.878237
12.855506
12.834109
12.813737
12.793946
12.774175
12.753768
12.731999
12.708095
12.681264
12.650722
12.615723
12.575597
12.529789
12.477906
12.419764
12.355430
12.285232
12.209731
12.129659
12.045841
11.959121
11.870298
11.780091
11.689116
11.597866
11.506706
11.415864
11.325433
11.235401
11.145722
11.056405
10.967586
14.930753
15.398642
16.037080
17.013895
18.875945
25.861209
22.261715
18.308432
16.914760
16.159133
15.674330
15.333324
15.078953
14.881173
14.722456
14.591766
14.481732
14.387199
14.304423
14.230605
14.163608
14.101779
14.043835
13.988784
13.935864
13.884506
13.834295
13.784942
13.736266
13.688176
13.640667
13.593808
13.547748
13.502696
13.458920
13.416717
13.376402
13.338283
13.302645
13.269743
13.239790
13.212959
13.189377
13.169124
13.152231
13.138674
13.128361
13.121126
13.116712
13.114753
13.114764
13.116129
13.118109
13.119871
13.120534
13.119258
13.115337
13.108301
13.097985
13.084556
13.068472
13.050403
13.031124
13.011412
12.991960
12.973320
12.955873
12.939816
12.925167
12.911765
12.899288
12.887264
12.875082
12.862017
12.847249
12.829887
12.809005
12.783670
12.752976
12.716085
12.672274
12.621004
12.562001
12.495332
12.421444
12.341118
12.255370
12.165308
12.072027
11.976519
11.879644
11.782109
11.684474
11.587155
11.490436
11.394487
11.299395
11.205212
11.112001
11.019872
15.013080
15.465993
16.068280
16.939688
18.345250
20.437508
19.889869
18.004813
16.892127
16.213680
15.759070
15.432655
15.186407
14.993628
14.838211
14.709780
14.601288
14.507729
14.425420
14.351573
14.284041
14.221150
14.161603
14.104405
14.048817
13.994310
13.940534
13.887286
13.834485
13.782147
13.730367
13.679305
13.629172
13.580222
13.532733
13.486996
13.443301
13.401923
13.363114
13.327090
13.294032
13.264078
13.237326
13.213828
13.193586
13.176554
13.162626
13.151628
13.143314
13.137354
13.133330
13.130737
13.128994
13.127470
13.125524
13.122563
13.118103
13.111832
13.103650
13.093681
13.082252
13.069840
13.057007
13.044328
13.032329
13.021440
13.011959
13.004034
12.997647
12.992616
12.988588
12.985044
12.981305
12.976548
12.969826
12.960097
12.946259
12.927190
12.901778
12.868959
12.827764
12.777408
12.717429
12.647856
12.569295
12.482879
12.390060
12.292374
12.191254
12.087937
11.983437
11.878559
11.773920
11.669976
11.567050
11.465353
11.365018
11.266132
11.168771
11.073017
15.041499
15.445707
15.946278
16.576813
17.328878
17.945589
17.874348
17.259835
16.631441
16.139526
15.768656
15.485202
15.263422
15.085763
14.940305
14.818751
14.715145
14.625070
14.545161
14.472798
14.405911
14.342868
14.282396
14.223529
14.165570
14.108058
14.050732
13.993498
13.936393
13.879555
13.823194
13.767571
13.712975
13.659713
13.608093
13.558413
13.510956
13.465976
13.423697
13.384307
13.347955
13.314751
13.284764
13.258019
13.234499
13.214141
13.196830
13.182395
13.170610
13.161183
13.153762
13.147937
13.143255
13.139239
13.135421
13.131382
13.126793
13.121451
13.115306
13.108466
13.101185
13.093825
13.086818
13.080609
13.075614
13.072179
13.070543
13.070817
13.072961
13.076768
13.081852
13.087638
13.093363
13.098079
13.100677
13.099922
13.094493
13.083035
13.064188
13.036604
12.998966
12.950072
12.889069
12.815822
12.731169
12.636836
12.535008
12.427866
12.317294
12.204804
12.091556
11.978427
11.866066
11.754943
11.645389
11.537621
11.431781
11.327954
11.226198
11.126561
15.033969
15.376634
15.766881
16.196653
16.615132
16.895094
16.900593
16.661526
16.329500
16.008791
15.733432
15.505403
15.317621
15.161996
15.031539
14.920629
14.824800
14.740487
14.664802
14.595388
14.530315
14.468021
14.407278
14.347168
14.287060
14.226582
14.165592
14.104134
14.042395
13.980661
13.919283
13.858638
13.799112
13.741078
13.684885
13.630851
13.579258
13.530347
13.484321
13.441341
13.401527
13.364962
13.331686
13.301704
13.274978
13.251432
13.230948
13.213362
13.198469
13.186015
13.175706
13.167212
13.160181
13.154256
13.149096
13.144408
13.139975
13.135674
13.131500
13.127562
13.124077
13.121348
13.119729
13.119592
13.121293
13.125128
13.131312
13.139941
13.150969
13.164181
13.179166
13.195296
13.211711
13.227318
13.240805
13.250688
13.255374
13.253231
13.242629
13.221918
13.189332
13.142972
13.081135
13.003160
12.910229
12.805206
12.691590
12.572542
12.450499
12.327215
12.203932
12.081536
11.960655
11.841734
11.725073
11.610865
11.499221
11.390200
11.283823
11.180089
15.010769
15.295686
15.597068
15.898069
16.161015
16.329096
16.358006
16.256861
16.079045
15.877734
15.683946
15.510094
15.358723
15.228259
15.115773
15.018111
14.932303
14.855676
14.785861
14.720784
14.658660
14.597996
14.537606
14.476618
14.414480
14.350940
14.286008
14.219909
14.153023
14.085828
14.018843
13.952592
13.887574
13.824243
13.762996
13.704177
13.648071
13.594909
13.544872
13.498094
13.454668
13.414644
13.378040
13.344833
13.314971
13.288365
13.264894
13.244404
13.226707
13.211584
13.198791
13.188064
13.179131
13.171726
13.165605
13.160572
13.156490
13.153303
13.151044
13.149838
13.149892
13.151482
13.154932
13.160582
13.168765
13.179770
13.193817
13.211022
13.231364
13.254646
13.280457
13.308132
13.336717
13.364950
13.391270
13.413871
13.430805
13.440110
13.439907
13.428344
13.403259
13.361676
13.299952
13.215773
13.110852
12.990616
12.861115
12.726922
12.590959
12.455033
12.320303
12.187548
12.057301
11.929925
11.805651
11.684612
11.566862
11.452403
11.341199
11.233193
14.988012
15.226037
15.463991
15.687234
15.872689
15.993599
16.032444
15.992912
15.897389
15.773016
15.640812
15.513161
15.395826
15.290595
15.197162
15.114217
15.040009
14.972628
14.910152
14.850737
14.792688
14.734532
14.675087
14.613513
14.549341
14.482465
14.413099
14.341712
14.268938
14.195500
14.122134
14.049542
13.978356
13.909120
13.842289
13.778228
13.717224
13.659494
13.605193
13.554426
13.507250
13.463687
13.423722
13.387311
13.354381
13.324832
13.298539
13.275354
13.255105
13.237605
13.222648
13.210025
13.199526
13.190956
13.184149
13.178979
13.175376
13.173338
13.172937
13.174321
13.177706
13.183372
13.191639
13.202853
13.217359
13.235476
13.257469
13.283512
13.313649
13.347748
13.385445
13.426073
13.468608
13.511606
13.553200
13.591152
13.623011
13.646378
13.659178
13.659728
13.646109
13.614292
13.556158
13.463608
13.339312
13.195841
13.044393
12.890976
12.738333
12.587805
12.440170
12.295940
12.155467
12.018976
11.886587
11.758335
11.634190
11.514072
11.397873
11.285461
14.976081
15.178794
15.373484
15.549478
15.693058
15.790717
15.834599
15.826646
15.777731
15.702576
15.614666
15.523793
15.435944
15.354165
15.279533
15.211893
15.150331
15.093480
15.039713
14.987289
14.934494
14.879774
14.821870
14.759925
14.693553
14.622833
14.548258
14.470627
14.390923
14.310189
14.229440
14.149590
14.071425
13.995587
13.922581
13.852791
13.786495
13.723884
13.665080
13.610146
13.559103
13.511934
13.468590
13.429000
13.393070
13.360685
13.331715
13.306015
13.283426
13.263784
13.246916
13.232655
13.220841
13.211337
13.204034
13.198866
13.195815
13.194928
13.196315
13.200153
13.206684
13.216208
13.229070
13.245649
13.266336
13.291515
13.321536
13.356678
13.397109
13.442827
13.493582
13.548784
13.607392
13.667803
13.727783
13.784495
13.834717
13.875313
13.903945
13.919765
13.923268
13.912589
13.871237
13.766774
13.604347
13.422439
13.240762
13.063697
12.891694
12.724708
12.562775
12.405997
12.254467
12.108226
11.967246
11.831433
11.700642
11.574689
11.453369
11.336465
14.980841
15.158072
15.323660
15.470207
15.589470
15.674245
15.720799
15.730487
15.709384
15.666161
15.609625
15.547076
15.483730
15.422824
15.366004
15.313718
15.265535
15.220383
15.176735
15.132776
15.086593
15.036383
14.980671
14.918502
14.849556
14.774162
14.693206
14.607958
14.519880
14.430450
14.341028
14.252788
14.166681
14.083443
14.003618
13.927587
13.855600
13.787806
13.724275
13.665021
13.610013
13.559190
13.512463
13.469730
13.430868
13.395749
13.364233
13.336173
13.311421
13.289827
13.271247
13.255546
13.242604
13.232329
13.224658
13.219572
13.217101
13.217333
13.220417
13.226565
13.236053
13.249219
13.266452
13.288187
13.314892
13.347049
13.385135
13.429592
13.480779
13.538910
13.603962
13.675545
13.752727
13.833829
13.916232
13.996285
14.069509
14.131325
14.178475
14.211189
14.236043
14.268243
14.304266
14.179243
13.912325
13.666261
13.446629
13.242812
13.049528
12.864586
12.687129
12.516813
12.353456