# vtk DataFile Version 3.0
vtk output
ASCII
DATASET STRUCTURED_GRID
DIMENSIONS 30 30 1
POINTS 900 float
0.000000 0.000000 0
0.000000 0.333333 0
0.000000 0.666667 0
0.000000 1.000000 0
0.000000 1.333333 0
0.000000 1.666667 0
0.000000 2.000000 0
0.000000 2.333333 0
0.000000 2.666667 0
0.000000 3.000000 0
0.000000 3.333333 0
0.000000 3.666667 0
0.000000 4.000000 0
0.000000 4.333333 0
0.000000 4.666667 0
0.000000 5.000000 0
0.000000 5.333333 0
0.000000 5.666667 0
0.000000 6.000000 0
0.000000 6.333333 0
0.000000 6.666667 0
0.000000 7.000000 0
0.000000 7.333333 0
0.000000 7.666667 0
0.000000 8.000000 0
0.000000 8.333333 0
0.000000 8.666667 0
0.000000 9.000000 0
0.000000 9.333333 0
0.000000 9.666667 0
0.333333 0.000000 0
0.333333 0.333333 0
0.333333 0.666667 0
0.333333 1.000000 0
0.333333 1.333333 0
0.333333 1.666667 0
0.333333 2.000000 0
0.333333 2.333333 0
0.333333 2.666667 0
0.333333 3.000000 0
0.333333 3.333333 0
0.333333 3.666667 0
0.333333 4.000000 0
0.333333 4.333333 0
0.333333 4.666667 0
0.333333 5.000000 0
0.333333 5.333333 0
0.333333 5.666667 0
0.333333 6.000000 0
0.333333 6.333333 0
0.333333 6.666667 0
0.333333 7.000000 0
0.333333 7.333333 0
0.333333 7.666667 0
0.333333 8.000000 0
0.333333 8.333333 0
0.333333 8.666667 0
0.333333 9.000000 0
0.333333 9.333333 0
0.333333 9.666667 0
0.666667 0.000000 0
0.666667 0.333333 0
0.666667 0.666667 0
0.666667 1.000000 0
0.666667 1.333333 0
0.666667 1.666667 0
0.666667 2.000000 0
0.666667 2.333333 0
0.666667 2.666667 0
0.666667 3.000000 0
0.666667 3.333333 0
0.666667 3.666667 0
0.666667 4.000000 0
0.666667 4.333333 0
0.666667 4.666667 0
0.666667 5.000000 0
0.666667 5.333333 0
0.666667 5.666667 0
0.666667 6.000000 0
0.666667 6.333333 0
0.666667 6.666667 0
0.666667 7.000000 0
0.666667 7.333333 0
0.666667 7.666667 0
0.666667 8.000000 0
0.666667 8.333333 0
0.666667 8.666667 0
0.666667 9.000000 0
0.666667 9.333333 0
0.666667 9.666667 0
1.000000 0.000000 0
1.000000 0.333333 0
1.000000 0.666667 0
1.000000 1.000000 0
1.000000 1.333333 0
1.000000 1.666667 0
1.000000 2.000000 0
1.000000 2.333333 0
1.000000 2.666667 0
1.000000 3.000000 0
1.000000 3.333333 0
1.000000 3.666667 0
1.000000 4.000000 0
1.000000 4.333333 0
1.000000 4.666667 0
1.000000 5.000000 0
1.000000 5.333333 0
1.000000 5.666667 0
1.000000 6.000000 0
1.000000 6.333333 0
1.000000 6.666667 0
1.000000 7.000000 0
1.000000 7.333333 0
1.000000 7.666667 0
1.000000 8.000000 0
1.000000 8.333333 0
1.000000 8.666667 0
1.000000 9.000000 0
1.000000 9.333333 0
1.000000 9.666667 0
1.333333 0.000000 0
1.333333 0.333333 0
1.333333 0.666667 0
1.333333 1.000000 0
1.333333 1.333333 0
1.333333 1.666667 0
1.333333 2.000000 0
1.333333 2.333333 0
1.333333 2.666667 0
1.333333 3.000000 0
1.333333 3.333333 0
1.333333 3.666667 0
1.333333 4.000000 0
1.333333 4.333333 0
1.333333 4.666667 0
1.333333 5.000000 0
1.333333 5.333333 0
1.333333 5.666667 0
1.333333 6.000000 0
1.333333 6.333333 0
1.333333 6.666667 0
1.333333 7.000000 0
1.333333 7.333333 0
1.333333 7.666667 0
1.333333 8.000000 0
1.333333 8.333333 0
1.333333 8.666667 0
1.333333 9.000000 0
1.333333 9.333333 0
1.333333 9.666667 0
1.666667 0.000000 0
1.666667 0.333333 0
1.666667 0.666667 0
1.666667 1.000000 0
1.666667 1.333333 0
1.666667 1.666667 0
1.666667 2.000000 0
1.666667 2.333333 0
1.666667 2.666667 0
1.666667 3.000000 0
1.666667 3.333333 0
1.666667 3.666667 0
1.666667 4.000000 0
1.666667 4.333333 0
1.666667 4.666667 0
1.666667 5.000000 0
1.666667 5.333333 0
1.666667 5.666667 0
1.666667 6.000000 0
1.666667 6.333333 0
1.666667 6.666667 0
1.666667 7.000000 0
1.666667 7.333333 0
1.666667 7.666667 0
1.666667 8.000000 0
1.666667 8.333333 0
1.666667 8.666667 0
1.666667 9.000000 0
1.666667 9.333333 0
1.666667 9.666667 0
2.000000 0.000000 0
2.000000 0.333333 0
2.000000 0.666667 0
2.000000 1.000000 0
2.000000 1.333333 0
2.000000 1.666667 0
2.000000 2.000000 0
2.000000 2.333333 0
2.000000 2.666667 0
2.000000 3.000000 0
2.000000 3.333333 0
2.000000 3.666667 0
2.000000 4.000000 0
2.000000 4.333333 0
2.000000 4.666667 0
2.000000 5.000000 0
2.000000 5.333333 0
2.000000 5.666667 0
2.000000 6.000000 0
2.000000 6.333333 0
2.000000 6.666667 0
2.000000 7.000000 0
2.000000 7.333333 0
2.000000 7.666667 0
2.000000 8.000000 0
2.000000 8.333333 0
2.000000 8.666667 0
2.000000 9.000000 0
2.000000 9.333333 0
2.000000 9.666667 0
2.333333 0.000000 0
2.333333 0.333333 0
2.333333 0.666667 0
2.333333 1.000000 0
2.333333 1.333333 0
2.333333 1.666667 0
2.333333 2.000000 0
2.333333 2.333333 0
2.333333 2.666667 0
2.333333 3.000000 0
2.333333 3.333333 0
2.333333 3.666667 0
2.333333 4.000000 0
2.333333 4.333333 0
2.333333 4.666667 0
2.333333 5.000000 0
2.333333 5.333333 0
2.333333 5.666667 0
2.333333 6.000000 0
2.333333 6.333333 0
2.333333 6.666667 0
2.333333 7.000000 0
2.333333 7.333333 0
2.333333 7.666667 0
2.333333 8.000000 0
2.333333 8.333333 0
2.333333 8.666667 0
2.333333 9.000000 0
2.333333 9.333333 0
2.333333 9.666667 0
2.666667 0.000000 0
2.666667 0.333333 0
2.666667 0.666667 0
2.666667 1.000000 0
2.666667 1.333333 0
2.666667 1.666667 0
2.666667 2.000000 0
2.666667 2.333333 0
2.666667 2.666667 0
2.666667 3.000000 0
2.666667 3.333333 0
2.666667 3.666667 0
2.666667 4.000000 0
2.666667 4.333333 0
2.666667 4.666667 0
2.666667 5.000000 0
2.666667 5.333333 0
2.666667 5.666667 0
2.666667 6.000000 0
2.666667 6.333333 0
2.666667 6.666667 0
2.666667 7.000000 0
2.666667 7.333333 0
2.666667 7.666667 0
2.666667 8.000000 0
2.666667 8.333333 0
2.666667 8.666667 0
2.666667 9.000000 0
2.666667 9.333333 0
2.666667 9.666667 0
3.000000 0.000000 0
3.000000 0.333333 0
3.000000 0.666667 0
3.000000 1.000000 0
3.000000 1.333333 0
3.000000 1.666667 0
3.000000 2.000000 0
3.000000 2.333333 0
3.000000 2.666667 0
3.000000 3.000000 0
3.000000 3.333333 0
3.000000 3.666667 0
3.000000 4.000000 0
3.000000 4.333333 0
3.000000 4.666667 0
3.000000 5.000000 0
3.000000 5.333333 0
3.000000 5.666667 0
3.000000 6.000000 0
3.000000 6.333333 0
3.000000 6.666667 0
3.000000 7.000000 0
3.000000 7.333333 0
3.000000 7.666667 0
3.000000 8.000000 0
3.000000 8.333333 0
3.000000 8.666667 0
3.000000 9.000000 0
3.000000 9.333333 0
3.000000 9.666667 0
3.333333 0.000000 0
3.333333 0.333333 0
3.333333 0.666667 0
3.333333 1.000000 0
3.333333 1.333333 0
3.333333 1.666667 0
3.333333 2.000000 0
3.333333 2.333333 0
3.333333 2.666667 0
3.333333 3.000000 0
3.333333 3.333333 0
3.333333 3.666667 0
3.333333 4.000000 0
3.333333 4.333333 0
3.333333 4.666667 0
3.333333 5.000000 0
3.333333 5.333333 0
3.333333 5.666667 0
3.333333 6.000000 0
3.333333 6.333333 0
3.333333 6.666667 0
3.333333 7.000000 0
3.333333 7.333333 0
3.333333 7.666667 0
3.333333 8.000000 0
3.333333 8.333333 0
3.333333 8.666667 0
3.333333 9.000000 0
3.333333 9.333333 0
3.333333 9.666667 0
3.666667 0.000000 0
3.666667 0.333333 0
3.666667 0.666667 0
3.666667 1.000000 0
3.666667 1.333333 0
3.666667 1.666667 0
3.666667 2.000000 0
3.666667 2.333333 0
3.666667 2.666667 0
3.666667 3.000000 0
3.666667 3.333333 0
3.666667 3.666667 0
3.666667 4.000000 0
3.666667 4.333333 0
3.666667 4.666667 0
3.666667 5.000000 0
3.666667 5.333333 0
3.666667 5.666667 0
3.666667 6.000000 0
3.666667 6.333333 0
3.666667 6.666667 0
3.666667 7.000000 0
3.666667 7.333333 0
3.666667 7.666667 0
3.666667 8.000000 0
3.666667 8.333333 0
3.666667 8.666667 0
3.666667 9.000000 0
3.666667 9.333333 0
3.666667 9.666667 0
4.000000 0.000000 0
4.000000 0.333333 0
4.000000 0.666667 0
4.000000 1.000000 0
4.000000 1.333333 0
4.000000 1.666667 0
4.000000 2.000000 0
4.000000 2.333333 0
4.000000 2.666667 0
4.000000 3.000000 0
4.000000 3.333333 0
4.000000 3.666667 0
4.000000 4.000000 0
4.000000 4.333333 0
4.000000 4.666667 0
4.000000 5.000000 0
4.000000 5.333333 0
4.000000 5.666667 0
4.000000 6.000000 0
4.000000 6.333333 0
4.000000 6.666667 0
4.000000 7.000000 0
4.000000 7.333333 0
4.000000 7.666667 0
4.000000 8.000000 0
4.000000 8.333333 0
4.000000 8.666667 0
4.000000 9.000000 0
4.000000 9.333333 0
4.000000 9.666667 0
4.333333 0.000000 0
4.333333 0.333333 0
4.333333 0.666667 0
4.333333 1.000000 0
4.333333 1.333333 0
4.333333 1.666667 0
4.333333 2.000000 0
4.333333 2.333333 0
4.333333 2.666667 0
4.333333 3.000000 0
4.333333 3.333333 0
4.333333 3.666667 0
4.333333 4.000000 0
4.333333 4.333333 0
4.333333 4.666667 0
4.333333 5.000000 0
4.333333 5.333333 0
4.333333 5.666667 0
4.333333 6.000000 0
4.333333 6.333333 0
4.333333 6.666667 0
4.333333 7.000000 0
4.333333 7.333333 0
4.333333 7.666667 0
4.333333 8.000000 0
4.333333 8.333333 0
4.333333 8.666667 0
4.333333 9.000000 0
4.333333 9.333333 0
4.333333 9.666667 0
4.666667 0.000000 0
4.666667 0.333333 0
4.666667 0.666667 0
4.666667 1.000000 0
4.666667 1.333333 0
4.666667 1.666667 0
4.666667 2.000000 0
4.666667 2.333333 0
4.666667 2.666667 0
4.666667 3.000000 0
4.666667 3.333333 0
4.666667 3.666667 0
4.666667 4.000000 0
4.666667 4.333333 0
4.666667 4.666667 0
4.666667 5.000000 0
4.666667 5.333333 0
4.666667 5.666667 0
4.666667 6.000000 0
4.666667 6.333333 0
4.666667 6.666667 0
4.666667 7.000000 0
4.666667 7.333333 0
4.666667 7.666667 0
4.666667 8.000000 0
4.666667 8.333333 0
4.666667 8.666667 0
4.666667 9.000000 0
4.666667 9.333333 0
4.666667 9.666667 0
5.000000 0.000000 0
5.000000 0.333333 0
5.000000 0.666667 0
5.000000 1.000000 0
5.000000 1.333333 0
5.000000 1.666667 0
5.000000 2.000000 0
5.000000 2.333333 0
5.000000 2.666667 0
5.000000 3.000000 0
5.000000 3.333333 0
5.000000 3.666667 0
5.000000 4.000000 0
5.000000 4.333333 0
5.000000 4.666667 0
5.000000 5.000000 0
5.000000 5.333333 0
5.000000 5.666667 0
5.000000 6.000000 0
5.000000 6.333333 0
5.000000 6.666667 0
5.000000 7.000000 0
5.000000 7.333333 0
5.000000 7.666667 0
5.000000 8.000000 0
5.000000 8.333333 0
5.000000 8.666667 0
5.000000 9.000000 0
5.000000 9.333333 0
5.000000 9.666667 0
5.333333 0.000000 0
5.333333 0.333333 0
5.333333 0.666667 0
5.333333 1.000000 0
5.333333 1.333333 0
5.333333 1.666667 0
5.333333 2.000000 0
5.333333 2.333333 0
5.333333 2.666667 0
5.333333 3.000000 0
5.333333 3.333333 0
5.333333 3.666667 0
5.333333 4.000000 0
5.333333 4.333333 0
5.333333 4.666667 0
5.333333 5.000000 0
5.333333 5.333333 0
5.333333 5.666667 0
5.333333 6.000000 0
5.333333 6.333333 0
5.333333 6.666667 0
5.333333 7.000000 0
5.333333 7.333333 0
5.333333 7.666667 0
5.333333 8.000000 0
5.333333 8.333333 0
5.333333 8.666667 0
5.333333 9.000000 0
5.333333 9.333333 0
5.333333 9.666667 0
5.666667 0.000000 0
5.666667 0.333333 0
5.666667 0.666667 0
5.666667 1.000000 0
5.666667 1.333333 0
5.666667 1.666667 0
5.666667 2.000000 0
5.666667 2.333333 0
5.666667 2.666667 0
5.666667 3.000000 0
5.666667 3.333333 0
5.666667 3.666667 0
5.666667 4.000000 0
5.666667 4.333333 0
5.666667 4.666667 0
5.666667 5.000000 0
5.666667 5.333333 0
5.666667 5.666667 0
5.666667 6.000000 0
5.666667 6.333333 0
5.666667 6.666667 0
5.666667 7.000000 0
5.666667 7.333333 0
5.666667 7.666667 0
5.666667 8.000000 0
5.666667 8.333333 0
5.666667 8.666667 0
5.666667 9.000000 0
5.666667 9.333333 0
5.666667 9.666667 0
6.000000 0.000000 0
6.000000 0.333333 0
6.000000 0.666667 0
6.000000 1.000000 0
6.000000 1.333333 0
6.000000 1.666667 0
6.000000 2.000000 0
6.000000 2.333333 0
6.000000 2.666667 0
6.000000 3.000000 0
6.000000 3.333333 0
6.000000 3.666667 0
6.000000 4.000000 0
6.000000 4.333333 0
6.000000 4.666667 0
6.000000 5.000000 0
6.000000 5.333333 0
6.000000 5.666667 0
6.000000 6.000000 0
6.000000 6.333333 0
6.000000 6.666667 0
6.000000 7.000000 0
6.000000 7.333333 0
6.000000 7.666667 0
6.000000 8.000000 0
6.000000 8.333333 0
6.000000 8.666667 0
6.000000 9.000000 0
6.000000 9.333333 0
6.000000 9.666667 0
6.333333 0.000000 0
6.333333 0.333333 0
6.333333 0.666667 0
6.333333 1.000000 0
6.333333 1.333333 0
6.333333 1.666667 0
6.333333 2.000000 0
6.333333 2.333333 0
6.333333 2.666667 0
6.333333 3.000000 0
6.333333 3.333333 0
6.333333 3.666667 0
6.333333 4.000000 0
6.333333 4.333333 0
6.333333 4.666667 0
6.333333 5.000000 0
6.333333 5.333333 0
6.333333 5.666667 0
6.333333 6.000000 0
6.333333 6.333333 0
6.333333 6.666667 0
6.333333 7.000000 0
6.333333 7.333333 0
6.333333 7.666667 0
6.333333 8.000000 0
6.333333 8.333333 0
6.333333 8.666667 0
6.333333 9.000000 0
6.333333 9.333333 0
6.333333 9.666667 0
6.666667 0.000000 0
6.666667 0.333333 0
6.666667 0.666667 0
6.666667 1.000000 0
6.666667 1.333333 0
6.666667 1.666667 0
6.666667 2.000000 0
6.666667 2.333333 0
6.666667 2.666667 0
6.666667 3.000000 0
6.666667 3.333333 0
6.666667 3.666667 0
6.666667 4.000000 0
6.666667 4.333333 0
6.666667 4.666667 0
6.666667 5.000000 0
6.666667 5.333333 0
6.666667 5.666667 0
6.666667 6.000000 0
6.666667 6.333333 0
6.666667 6.666667 0
6.666667 7.000000 0
6.666667 7.333333 0
6.666667 7.666667 0
6.666667 8.000000 0
6.666667 8.333333 0
6.666667 8.666667 0
6.666667 9.000000 0
6.666667 9.333333 0
6.666667 9.666667 0
7.000000 0.000000 0
7.000000 0.333333 0
7.000000 0.666667 0
7.000000 1.000000 0
7.000000 1.333333 0
7.000000 1.666667 0
7.000000 2.000000 0
7.000000 2.333333 0
7.000000 2.666667 0
7.000000 3.000000 0
7.000000 3.333333 0
7.000000 3.666667 0
7.000000 4.000000 0
7.000000 4.333333 0
7.000000 4.666667 0
7.000000 5.000000 0
7.000000 5.333333 0
7.000000 5.666667 0
7.000000 6.000000 0
7.000000 6.333333 0
7.000000 6.666667 0
7.000000 7.000000 0
7.000000 7.333333 0
7.000000 7.666667 0
7.000000 8.000000 0
7.000000 8.333333 0
7.000000 8.666667 0
7.000000 9.000000 0
7.000000 9.333333 0
7.000000 9.666667 0
7.333333 0.000000 0
7.333333 0.333333 0
7.333333 0.666667 0
7.333333 1.000000 0
7.333333 1.333333 0
7.333333 1.666667 0
7.333333 2.000000 0
7.333333 2.333333 0
7.333333 2.666667 0
7.333333 3.000000 0
7.333333 3.333333 0
7.333333 3.666667 0
7.333333 4.000000 0
7.333333 4.333333 0
7.333333 4.666667 0
7.333333 5.000000 0
7.333333 5.333333 0
7.333333 5.666667 0
7.333333 6.000000 0
7.333333 6.333333 0
7.333333 6.666667 0
7.333333 7.000000 0
7.333333 7.333333 0
7.333333 7.666667 0
7.333333 8.000000 0
7.333333 8.333333 0
7.333333 8.666667 0
7.333333 9.000000 0
7.333333 9.333333 0
7.333333 9.666667 0
7.666667 0.000000 0
7.666667 0.333333 0
7.666667 0.666667 0
7.666667 1.000000 0
7.666667 1.333333 0
7.666667 1.666667 0
7.666667 2.000000 0
7.666667 2.333333 0
7.666667 2.666667 0
7.666667 3.000000 0
7.666667 3.333333 0
7.666667 3.666667 0
7.666667 4.000000 0
7.666667 4.333333 0
7.666667 4.666667 0
7.666667 5.000000 0
7.666667 5.333333 0
7.666667 5.666667 0
7.666667 6.000000 0
7.666667 6.333333 0
7.666667 6.666667 0
7.666667 7.000000 0
7.666667 7.333333 0
7.666667 7.666667 0
7.666667 8.000000 0
7.666667 8.333333 0
7.666667 8.666667 0
7.666667 9.000000 0
7.666667 9.333333 0
7.666667 9.666667 0
8.000000 0.000000 0
8.000000 0.333333 0
8.000000 0.666667 0
8.000000 1.000000 0
8.000000 1.333333 0
8.000000 1.666667 0
8.000000 2.000000 0
8.000000 2.333333 0
8.000000 2.666667 0
8.000000 3.000000 0
8.000000 3.333333 0
8.000000 3.666667 0
8.000000 4.000000 0
8.000000 4.333333 0
8.000000 4.666667 0
8.000000 5.000000 0
8.000000 5.333333 0
8.000000 5.666667 0
8.000000 6.000000 0
8.000000 6.333333 0
8.000000 6.666667 0
8.000000 7.000000 0
8.000000 7.333333 0
8.000000 7.666667 0
8.000000 8.000000 0
8.000000 8.333333 0
8.000000 8.666667 0
8.000000 9.000000 0
8.000000 9.333333 0
8.000000 9.666667 0
8.333333 0.000000 0
8.333333 0.333333 0
8.333333 0.666667 0
8.333333 1.000000 0
8.333333 1.333333 0
8.333333 1.666667 0
8.333333 2.000000 0
8.333333 2.333333 0
8.333333 2.666667 0
8.333333 3.000000 0
8.333333 3.333333 0
8.333333 3.666667 0
8.333333 4.000000 0
8.333333 4.333333 0
8.333333 4.666667 0
8.333333 5.000000 0
8.333333 5.333333 0
8.333333 5.666667 0
8.333333 6.000000 0
8.333333 6.333333 0
8.333333 6.666667 0
8.333333 7.000000 0
8.333333 7.333333 0
8.333333 7.666667 0
8.333333 8.000000 0
8.333333 8.333333 0
8.333333 8.666667 0
8.333333 9.000000 0
8.333333 9.333333 0
8.333333 9.666667 0
8.666667 0.000000 0
8.666667 0.333333 0
8.666667 0.666667 0
8.666667 1.000000 0
8.666667 1.333333 0
8.666667 1.666667 0
8.666667 2.000000 0
8.666667 2.333333 0
8.666667 2.666667 0
8.666667 3.000000 0
8.666667 3.333333 0
8.666667 3.666667 0
8.666667 4.000000 0
8.666667 4.333333 0
8.666667 4.666667 0
8.666667 5.000000 0
8.666667 5.333333 0
8.666667 5.666667 0
8.666667 6.000000 0
8.666667 6.333333 0
8.666667 6.666667 0
8.666667 7.000000 0
8.666667 7.333333 0
8.666667 7.666667 0
8.666667 8.000000 0
8.666667 8.333333 0
8.666667 8.666667 0
8.666667 9.000000 0
8.666667 9.333333 0
8.666667 9.666667 0
9.000000 0.000000 0
9.000000 0.333333 0
9.000000 0.666667 0
9.000000 1.000000 0
9.000000 1.333333 0
9.000000 1.666667 0
9.000000 2.000000 0
9.000000 2.333333 0
9.000000 2.666667 0
9.000000 3.000000 0
9.000000 3.333333 0
9.000000 3.666667 0
9.000000 4.000000 0
9.000000 4.333333 0
9.000000 4.666667 0
9.000000 5.000000 0
9.000000 5.333333 0
9.000000 5.666667 0
9.000000 6.000000 0
9.000000 6.333333 0
9.000000 6.666667 0
9.000000 7.000000 0
9.000000 7.333333 0
9.000000 7.666667 0
9.000000 8.000000 0
9.000000 8.333333 0
9.000000 8.666667 0
9.000000 9.000000 0
9.000000 9.333333 0
9.000000 9.666667 0
9.333333 0.000000 0
9.333333 0.333333 0
9.333333 0.666667 0
9.333333 1.000000 0
9.333333 1.333333 0
9.333333 1.666667 0
9.333333 2.000000 0
9.333333 2.333333 0
9.333333 2.666667 0
9.333333 3.000000 0
9.333333 3.333333 0
9.333333 3.666667 0
9.333333 4.000000 0
9.333333 4.333333 0
9.333333 4.666667 0
9.333333 5.000000 0
9.333333 5.333333 0
9.333333 5.666667 0
9.333333 6.000000 0
9.333333 6.333333 0
9.333333 6.666667 0
9.333333 7.000000 0
9.333333 7.333333 0
9.333333 7.666667 0
9.333333 8.000000 0
9.333333 8.333333 0
9.333333 8.666667 0
9.333333 9.000000 0
9.333333 9.333333 0
9.333333 9.666667 0
9.666667 0.000000 0
9.666667 0.333333 0
9.666667 0.666667 0
9.666667 1.000000 0
9.666667 1.333333 0
9.666667 1.666667 0
9.666667 2.000000 0
9.666667 2.333333 0
9.666667 2.666667 0
9.666667 3.000000 0
9.666667 3.333333 0
9.666667 3.666667 0
9.666667 4.000000 0
9.666667 4.333333 0
9.666667 4.666667 0
9.666667 5.000000 0
9.666667 5.333333 0
9.666667 5.666667 0
9.666667 6.000000 0
9.666667 6.333333 0
9.666667 6.666667 0
9.666667 7.000000 0
9.666667 7.333333 0
9.666667 7.666667 0
9.666667 8.000000 0
9.666667 8.333333 0
9.666667 8.666667 0
9.666667 9.000000 0
9.666667 9.333333 0
9.666667 9.666667 0
POINT_DATA 900
SCALARS cellData float 1
LOOKUP_TABLE default
11.216643
11.481795
11.728025
11.940649
12.112998
12.248362
12.354034
12.435510
12.496261
12.540680
12.576131
12.612683
12.661565
12.733822
12.839828
12.989350
13.191592
13.454035
13.768666
14.031183
14.056946
14.043924
14.376570
15.865870
15.532425
13.504803
12.576663
11.985510
11.545598
11.190126
11.523127
11.852164
12.157629
12.407377
12.589357
12.718826
12.815384
12.886453
12.931598
12.953009
12.960472
12.969447
12.996807
13.058358
13.169089
13.345054
13.606152
13.984373
14.569410
15.463137
15.015997
14.530041
14.656857
15.717259
15.359387
13.641481
12.730917
12.134138
11.685637
11.321572
11.855644
12.287824
12.700200
13.005942
13.174648
13.271091
13.348897
13.409635
13.435369
13.420489
13.380434
13.341964
13.331062
13.368698
13.473712
13.668560
13.985283
14.468633
15.219467
17.281353
15.632077
14.707093
14.457778
14.416682
14.062671
13.362968
12.716752
12.198970
11.777670
11.422742
12.198411
12.803936
13.461817
13.880828
13.923008
13.910709
13.967152
14.037846
14.047178
13.972032
13.847912
13.729120
13.656119
13.652365
13.736055
13.933564
14.296134
14.918858
15.739774
15.809921
15.197777
14.591648
14.211551
13.924497
13.570009
13.116059
12.645678
12.215178
11.835168
11.499607
12.497032
13.344985
14.711708
15.668015
14.843289
14.582489
14.678148
14.849231
14.860313
14.665351
14.377671
14.123329
13.958548
13.895232
13.939154
14.110509
14.471085
15.245678
19.112194
16.032810
14.943522
14.395012
14.004327
13.672647
13.333239
12.964322
12.584196
12.217006
11.875080
11.560940
12.658345
13.606499
15.565302
18.092438
15.383894
15.108365
15.488530
16.104676
16.128275
15.623529
14.969009
14.495589
14.215413
14.083152
14.073908
14.186592
14.448901
14.934147
15.562352
15.227146
14.621722
14.186043
13.836423
13.519881
13.205175
12.880266
12.549514
12.223460
11.910558
11.615005
12.647596
13.423849
14.417713
15.093218
15.093269
15.313791
16.208086
20.245106
18.448841
17.148968
15.503416
14.771271
14.393753
14.205116
14.144567
14.187668
14.322579
14.520244
14.658763
14.559370
14.291004
13.995843
13.709623
13.427378
13.140092
12.844279
12.543022
12.242775
11.949728
11.668037
12.536611
13.131455
13.761552
14.299373
14.736185
15.222928
15.994140
17.326790
18.196595
17.222141
15.585262
14.855026
14.467416
14.258646
14.164997
14.153926
14.199601
14.264940
14.290395
14.223162
14.068277
13.864058
13.634826
13.387827
13.124707
12.848303
12.564034
12.278398
11.997111
11.724158
12.398408
12.883904
13.387030
13.887678
14.471754
15.159720
15.369017
15.861577
16.118112
15.828525
15.233215
14.757943
14.445376
14.254579
14.151647
14.111441
14.110683
14.122060
14.114117
14.061858
13.958299
13.809924
13.624257
13.405693
13.158785
12.891217
12.612656
12.331827
12.054946
11.785755
12.262171
12.681542
13.117541
13.566949
14.041621
14.481694
14.825637
15.120524
15.250867
15.141616
14.874016
14.592421
14.368548
14.214014
14.119860
14.072115
14.054940
14.050675
14.040921
14.009574
13.945214
13.840678
13.691036
13.492831
13.249528
12.975710
12.689338
12.403171
12.123764
11.853811
12.134619
12.509114
12.898303
13.298879
13.705393
14.098742
14.455490
14.736293
14.858603
14.795846
14.626363
14.437637
14.276633
14.158322
14.082047
14.041027
14.026200
14.027682
14.035509
14.038781
14.022128
13.966681
13.857154
13.674371
13.412461
13.105876
12.792847
12.490409
12.202368
11.928114
12.016250
12.357666
12.712372
13.079083
13.457445
13.849309
14.260623
14.659664
14.820740
14.672259
14.476768
14.314348
14.190051
14.101921
14.046666
14.020237
14.018473
14.038017
14.077801
14.137310
14.198395
14.210816
14.168505
14.017480
13.677483
13.281009
12.916003
12.587980
12.287751
12.007562
11.906320
12.221959
12.550117
12.892163
13.254073
13.655162
14.159721
15.026234
15.491672
14.678013
14.369667
14.210727
14.113223
14.052097
14.018777
14.010354
14.026569
14.068908
14.146320
14.288785
14.539940
14.616656
14.696221
14.835984
14.074552
13.472378
13.039627
12.686310
12.375735
12.090855
11.804032
12.098488
12.404341
12.724083
13.065332
13.449375
13.940593
14.770826
15.206986
14.494939
14.228136
14.108075
14.045731
14.013333
14.002056
14.011569
14.047328
14.112564
14.210512
14.406475
15.004096
14.994853
15.048565
16.547636
14.317633
13.593790
13.136097
12.775517
12.463084
12.177724
11.708946
11.985271
12.271056
12.568123
12.881085
13.219299
13.595203
13.982172
14.179198
14.124404
14.046914
14.007055
13.992955
13.992430
14.001486
14.024205
14.072904
14.162085
14.252373
14.417934
14.630996
14.715321
14.714620
14.605633
14.112916
13.605138
13.195647
12.853086
12.550350
12.270370
11.621137
11.881780
12.149441
12.424577
12.708127
13.000105
13.293375
13.558322
13.742450
13.835501
13.886279
13.929456
13.969889
14.002335
14.026379
14.051989
14.095910
14.172110
14.289613
14.450451
14.608748
14.664475
14.565089
14.324012
13.969729
13.587870
13.237721
12.926558
12.643179
12.374570
11.541119
11.788489
12.040481
12.296484
12.555463
12.814607
13.066551
13.297084
13.490988
13.647198
13.779954
13.899724
14.000472
14.066359
14.093704
14.103801
14.129798
14.200700
14.339544
14.561437
14.831246
14.939054
14.699439
14.319051
13.940736
13.593014
13.283509
13.007387
12.751483
12.500624
11.469661
11.706314
11.945552
12.186243
12.426917
12.665235
12.897437
13.118976
13.327819
13.528600
13.730921
13.937332
14.122984
14.230856
14.234275
14.188676
14.167216
14.215912
14.372510
14.705863
15.384262
16.042778
15.112962
14.415871
13.959413
13.614913
13.339034
13.105213
12.889057
12.665699
11.407641
11.636288
11.865830
12.094939
12.322383
12.547126
12.768699
12.988382
13.211495
13.450093
13.723861
14.052966
14.412745
14.616267
14.507385
14.308379
14.189769
14.187180
14.324311
14.686957
15.671138
18.786474
15.300623
14.466189
13.958999
13.627884
13.399231
13.227416
13.076105
12.900817
11.356013
11.579544
11.802439
12.023156
12.240710
12.455152
12.668306
12.885080
13.115782
13.380329
13.717179
14.206576
15.013093
15.740940
14.990221
14.420031
14.162638
14.089942
14.162761
14.394793
14.810360
15.074245
14.692212
14.418733
13.871706
13.606157
13.454440
13.378452
13.344126
13.271496
11.315844
11.537502
11.756938
11.972057
12.181710
12.386452
12.589381
12.797308
13.022882
13.289353
13.643635
14.203806
15.446224
20.758707
15.245312
14.370823
14.039237
13.917964
13.923239
14.019810
14.154262
14.202633
14.086219
13.890200
13.684054
13.542025
13.491058
13.547093
13.730247
13.951323
11.288370
11.512142
11.731919
11.944368
12.147447
12.341520
12.530173
12.720823
12.925769
13.164762
13.471159
13.904335
14.536287
14.986587
14.532951
14.064852
13.805586
13.684205
13.651794
13.674016
13.711156
13.715575
13.663257
13.574374
13.488124
13.445670
13.486560
13.671813
14.164862
15.529332
11.274962
11.506257
11.731683
11.945433
12.143357
12.324936
12.494045
12.658458
12.829109
13.019637
13.245100
13.513631
13.789600
13.932215
13.842123
13.658009
13.506530
13.414631
13.373687
13.366374
13.371407
13.368433
13.348387
13.319419
13.302131
13.323521
13.418522
13.650004
14.190046
15.710764
11.276857
11.523614
11.763163
11.984801
12.179847
12.346215
12.489135
12.618226
12.744385
12.877494
13.023267
13.176415
13.309685
13.376196
13.353899
13.277579
13.196129
13.135436
13.100825
13.087291
13.085793
13.088013
13.090959
13.099356
13.124681
13.183176
13.295545
13.488634
13.788639
14.105845
11.294302
11.568721
11.837418
12.079563
12.275651
12.421449
12.527974
12.610752
12.683422
12.755751
12.831731
12.906957
12.967516
12.995945
12.985451
12.947451
12.901651
12.863145
12.838664
12.828755
12.831073
12.843350
12.865681
12.901413
12.956642
13.039444
13.158378
13.313757
13.470911
13.519488
11.324439
11.645025
11.972115
12.263323
12.466375
12.576503
12.627261
12.647301
12.654873
12.661922
12.673954
12.689399
12.701209
12.701281
12.686132
12.659493
12.629534
12.604184
12.588579
12.585110
12.594765
12.618683
12.659171
12.719399
12.801699
12.907648
13.043061
13.212347
13.378089
13.404691
11.357008
11.747344
12.192501
12.618879
12.829664
12.850178
12.806918
12.738869
12.663372
12.595694
12.543684
12.506615
12.478838
12.454034
12.428412
12.401950
12.377479
12.358803
12.349333
12.351808
12.368879
12.404062
12.462471
12.549903
12.666749
12.800367
12.956000
13.191294
13.557680
13.823600
11.369435
11.840284
12.490063
13.495316
13.544659
13.280561
13.088766
12.898045
12.709175
12.549780
12.429513
12.342977
12.280484
12.233333
12.195690
12.164879
12.140725
12.124557
12.118417
12.124849
12.147306
12.191187
12.265652
12.386317
12.570566
12.757304
12.872034
13.142634
13.908387
16.806250
11.331292
11.845900
12.610917
14.043421
14.534668
13.855378
13.521061
13.151502
12.783728
12.506639
12.314832
12.183258
12.091477
12.025602
11.976928
11.940598
11.914494
11.898343
11.893129
11.900927
11.925280
11.972404
12.054356
12.199566
12.511494
13.268123
12.724490
12.871360
13.442458
14.430816
11.224754
11.718268
12.399556
13.452808
15.042936
14.374077
14.450139
13.550065
12.841767
12.430710
12.177682
12.012655
11.900336
11.821339
11.764500
11.723451
11.694864
11.677435
11.671310
11.677901
11.700109
11.743210
11.817126
11.942776
12.167922
12.411809
12.338421
12.396272
12.572953
12.653303
