# vtk DataFile Version 3.0
vtk output
ASCII
DATASET STRUCTURED_GRID
DIMENSIONS 30 30 30
POINTS 27000 float
0.000000 0.000000 0.000000
0.000000 0.000000 0.333333
0.000000 0.000000 0.666667
0.000000 0.000000 1.000000
0.000000 0.000000 1.333333
0.000000 0.000000 1.666667
0.000000 0.000000 2.000000
0.000000 0.000000 2.333333
0.000000 0.000000 2.666667
0.000000 0.000000 3.000000
0.000000 0.000000 3.333333
0.000000 0.000000 3.666667
0.000000 0.000000 4.000000
0.000000 0.000000 4.333333
0.000000 0.000000 4.666667
0.000000 0.000000 5.000000
0.000000 0.000000 5.333333
0.000000 0.000000 5.666667
0.000000 0.000000 6.000000
0.000000 0.000000 6.333333
0.000000 0.000000 6.666667
0.000000 0.000000 7.000000
0.000000 0.000000 7.333333
0.000000 0.000000 7.666667
0.000000 0.000000 8.000000
0.000000 0.000000 8.333333
0.000000 0.000000 8.666667
0.000000 0.000000 9.000000
0.000000 0.000000 9.333333
0.000000 0.000000 9.666667
0.000000 0.333333 0.000000
0.000000 0.333333 0.333333
0.000000 0.333333 0.666667
0.000000 0.333333 1.000000
0.000000 0.333333 1.333333
0.000000 0.333333 1.666667
0.000000 0.333333 2.000000
0.000000 0.333333 2.333333
0.000000 0.333333 2.666667
0.000000 0.333333 3.000000
0.000000 0.333333 3.333333
0.000000 0.333333 3.666667
0.000000 0.333333 4.000000
0.000000 0.333333 4.333333
0.000000 0.333333 4.666667
0.000000 0.333333 5.000000
0.000000 0.333333 5.333333
0.000000 0.333333 5.666667
0.000000 0.333333 6.000000
0.000000 0.333333 6.333333
0.000000 0.333333 6.666667
0.000000 0.333333 7.000000
0.000000 0.333333 7.333333
0.000000 0.333333 7.666667
0.000000 0.333333 8.000000
0.000000 0.333333 8.333333
0.000000 0.333333 8.666667
0.000000 0.333333 9.000000
0.000000 0.333333 9.333333
0.000000 0.333333 9.666667
0.000000 0.666667 0.000000
0.000000 0.666667 0.333333
0.000000 0.666667 0.666667
0.000000 0.666667 1.000000
0.000000 0.666667 1.333333
0.000000 0.666667 1.666667
0.000000 0.666667 2.000000
0.000000 0.666667 2.333333
0.000000 0.666667 2.666667
0.000000 0.666667 3.000000
0.000000 0.666667 3.333333
0.000000 0.666667 3.666667
0.000000 0.666667 4.000000
0.000000 0.666667 4.333333
0.000000 0.666667 4.666667
0.000000 0.666667 5.000000
0.000000 0.666667 5.333333
0.000000 0.666667 5.666667
0.000000 0.666667 6.000000
0.000000 0.666667 6.333333
0.000000 0.666667 6.666667
0.000000 0.666667 7.000000
0.000000 0.666667 7.333333
0.000000 0.666667 7.666667
0.000000 0.666667 8.000000
0.000000 0.666667 8.333333
0.000000 0.666667 8.666667
0.000000 0.666667 9.000000
0.000000 0.666667 9.333333
0.000000 0.666667 9.666667
0.000000 1.000000 0.000000
0.000000 1.000000 0.333333
0.000000 1.000000 0.666667
0.000000 1.000000 1.000000
0.000000 1.000000 1.333333
0.000000 1.000000 1.666667
0.000000 1.000000 2.000000
0.000000 1.000000 2.333333
0.000000 1.000000 2.666667
0.000000 1.000000 3.000000
0.000000 1.000000 3.333333
0.000000 1.000000 3.666667
0.000000 1.000000 4.000000
0.000000 1.000000 4.333333
0.000000 1.000000 4.666667
0.000000 1.000000 5.000000
0.000000 1.000000 5.333333
0.000000 1.000000 5.666667
0.000000 1.000000 6.000000
0.000000 1.000000 6.333333
0.000000 1.000000 6.666667
0.000000 1.000000 7.000000
0.000000 1.000000 7.333333
0.000000 1.000000 7.666667
0.000000 1.000000 8.000000
0.000000 1.000000 8.333333
0.000000 1.000000 8.666667
0.000000 1.000000 9.000000
0.000000 1.000000 9.333333
0.000000 1.000000 9.666667
0.000000 1.333333 0.000000
0.000000 1.333333 0.333333
0.000000 1.333333 0.666667
0.000000 1.333333 1.000000
0.000000 1.333333 1.333333
0.000000 1.333333 1.666667
0.000000 1.333333 2.000000
0.000000 1.333333 2.333333
0.000000 1.333333 2.666667
0.000000 1.333333 3.000000
0.000000 1.333333 3.333333
0.000000 1.333333 3.666667
0.000000 1.333333 4.000000
0.000000 1.333333 4.333333
0.000000 1.333333 4.666667
0.000000 1.333333 5.000000
0.000000 1.333333 5.333333
0.000000 1.333333 5.666667
0.000000 1.333333 6.000000
0.000000 1.333333 6.333333
0.000000 1.333333 6.666667
0.000000 1.333333 7.000000
0.000000 1.333333 7.333333
0.000000 1.333333 7.666667
0.000000 1.333333 8.000000
0.000000 1.333333 8.333333
0.000000 1.333333 8.666667
0.000000 1.333333 9.000000
0.000000 1.333333 9.333333
0.000000 1.333333 9.666667
0.000000 1.666667 0.000000
0.000000 1.666667 0.333333
0.000000 1.666667 0.666667
0.000000 1.666667 1.000000
0.000000 1.666667 1.333333
0.000000 1.666667 1.666667
0.000000 1.666667 2.000000
0.000000 1.666667 2.333333
0.000000 1.666667 2.666667
0.000000 1.666667 3.000000
0.000000 1.666667 3.333333
0.000000 1.666667 3.666667
0.000000 1.666667 4.000000
0.000000 1.666667 4.333333
0.000000 1.666667 4.666667
0.000000 1.666667 5.000000
0.000000 1.666667 5.333333
0.000000 1.666667 5.666667
0.000000 1.666667 6.000000
0.000000 1.666667 6.333333
0.000000 1.666667 6.666667
0.000000 1.666667 7.000000
0.000000 1.666667 7.333333
0.000000 1.666667 7.666667
0.000000 1.666667 8.000000
0.000000 1.666667 8.333333
0.000000 1.666667 8.666667
0.000000 1.666667 9.000000
0.000000 1.666667 9.333333
0.000000 1.666667 9.666667
0.000000 2.000000 0.000000
0.000000 2.000000 0.333333
0.000000 2.000000 0.666667
0.000000 2.000000 1.000000
0.000000 2.000000 1.333333
0.000000 2.000000 1.666667
0.000000 2.000000 2.000000
0.000000 2.000000 2.333333
0.000000 2.000000 2.666667
0.000000 2.000000 3.000000
0.000000 2.000000 3.333333
0.000000 2.000000 3.666667
0.000000 2.000000 4.000000
0.000000 2.000000 4.333333
0.000000 2.000000 4.666667
0.000000 2.000000 5.000000
0.000000 2.000000 5.333333
0.000000 2.000000 5.666667
0.000000 2.000000 6.000000
0.000000 2.000000 6.333333
0.000000 2.000000 6.666667
0.000000 2.000000 7.000000
0.000000 2.000000 7.333333
0.000000 2.000000 7.666667
0.000000 2.000000 8.000000
0.000000 2.000000 8.333333
0.000000 2.000000 8.666667
0.000000 2.000000 9.000000
0.000000 2.000000 9.333333
0.000000 2.000000 9.666667
0.000000 2.333333 0.000000
0.000000 2.333333 0.333333
0.000000 2.333333 0.666667
0.000000 2.333333 1.000000
0.000000 2.333333 1.333333
0.000000 2.333333 1.666667
0.000000 2.333333 2.000000
0.000000 2.333333 2.333333
0.000000 2.333333 2.666667
0.000000 2.333333 3.000000
0.000000 2.333333 3.333333
0.000000 2.333333 3.666667
0.000000 2.333333 4.000000
0.000000 2.333333 4.333333
0.000000 2.333333 4.666667
0.000000 2.333333 5.000000
0.000000 2.333333 5.333333
0.000000 2.333333 5.666667
0.000000 2.333333 6.000000
0.000000 2.333333 6.333333
0.000000 2.333333 6.666667
0.000000 2.333333 7.000000
0.000000 2.333333 7.333333
0.000000 2.333333 7.666667
0.000000 2.333333 8.000000
0.000000 2.333333 8.333333
0.000000 2.333333 8.666667
0.000000 2.333333 9.000000
0.000000 2.333333 9.333333
0.000000 2.333333 9.666667
0.000000 2.666667 0.000000
0.000000 2.666667 0.333333
0.000000 2.666667 0.666667
0.000000 2.666667 1.000000
0.000000 2.666667 1.333333
0.000000 2.666667 1.666667
0.000000 2.666667 2.000000
0.000000 2.666667 2.333333
0.000000 2.666667 2.666667
0.000000 2.666667 3.000000
0.000000 2.666667 3.333333
0.000000 2.666667 3.666667
0.000000 2.666667 4.000000
0.000000 2.666667 4.333333
0.000000 2.666667 4.666667
0.000000 2.666667 5.000000
0.000000 2.666667 5.333333
0.000000 2.666667 5.666667
0.000000 2.666667 6.000000
0.000000 2.666667 6.333333
0.000000 2.666667 6.666667
0.000000 2.666667 7.000000
0.000000 2.666667 7.333333
0.000000 2.666667 7.666667
0.000000 2.666667 8.000000
0.000000 2.666667 8.333333
0.000000 2.666667 8.666667
0.000000 2.666667 9.000000
0.000000 2.666667 9.333333
0.000000 2.666667 9.666667
0.000000 3.000000 0.000000
0.000000 3.000000 0.333333
0.000000 3.000000 0.666667
0.000000 3.000000 1.000000
0.000000 3.000000 1.333333
0.000000 3.000000 1.666667
0.000000 3.000000 2.000000
0.000000 3.000000 2.333333
0.000000 3.000000 2.666667
0.000000 3.000000 3.000000
0.000000 3.000000 3.333333
0.000000 3.000000 3.666667
0.000000 3.000000 4.000000
0.000000 3.000000 4.333333
0.000000 3.000000 4.666667
0.000000 3.000000 5.000000
0.000000 3.000000 5.333333
0.000000 3.000000 5.666667
0.000000 3.000000 6.000000
0.000000 3.000000 6.333333
0.000000 3.000000 6.666667
0.000000 3.000000 7.000000
0.000000 3.000000 7.333333
0.000000 3.000000 7.666667
0.000000 3.000000 8.000000
0.000000 3.000000 8.333333
0.000000 3.000000 8.666667
0.000000 3.000000 9.000000
0.000000 3.000000 9.333333
0.000000 3.000000 9.666667
0.000000 3.333333 0.000000
0.000000 3.333333 0.333333
0.000000 3.333333 0.666667
0.000000 3.333333 1.000000
0.000000 3.333333 1.333333
0.000000 3.333333 1.666667
0.000000 3.333333 2.000000
0.000000 3.333333 2.333333
0.000000 3.333333 2.666667
0.000000 3.333333 3.000000
0.000000 3.333333 3.333333
0.000000 3.333333 3.666667
0.000000 3.333333 4.000000
0.000000 3.333333 4.333333
0.000000 3.333333 4.666667
0.000000 3.333333 5.000000
0.000000 3.333333 5.333333
0.000000 3.333333 5.666667
0.000000 3.333333 6.000000
0.000000 3.333333 6.333333
0.000000 3.333333 6.666667
0.000000 3.333333 7.000000
0.000000 3.333333 7.333333
0.000000 3.333333 7.666667
0.000000 3.333333 8.000000
0.000000 3.333333 8.333333
0.000000 3.333333 8.666667
0.000000 3.333333 9.000000
0.000000 3.333333 9.333333
0.000000 3.333333 9.666667
0.000000 3.666667 0.000000
0.000000 3.666667 0.333333
0.000000 3.666667 0.666667
0.000000 3.666667 1.000000
0.000000 3.666667 1.333333
0.000000 3.666667 1.666667
0.000000 3.666667 2.000000
0.000000 3.666667 2.333333
0.000000 3.666667 2.666667
0.000000 3.666667 3.000000
0.000000 3.666667 3.333333
0.000000 3.666667 3.666667
0.000000 3.666667 4.000000
0.000000 3.666667 4.333333
0.000000 3.666667 4.666667
0.000000 3.666667 5.000000
0.000000 3.666667 5.333333
0.000000 3.666667 5.666667
0.000000 3.666667 6.000000
0.000000 3.666667 6.333333
0.000000 3.666667 6.666667
0.000000 3.666667 7.000000
0.000000 3.666667 7.333333
0.000000 3.666667 7.666667
0.000000 3.666667 8.000000
0.000000 3.666667 8.333333
0.000000 3.666667 8.666667
0.000000 3.666667 9.000000
0.000000 3.666667 9.333333
0.000000 3.666667 9.666667
0.000000 4.000000 0.000000
0.000000 4.000000 0.333333
0.000000 4.000000 0.666667
0.000000 4.000000 1.000000
0.000000 4.000000 1.333333
0.000000 4.000000 1.666667
[...]
POINT_DATA 27000
SCALARS cellData float 1
LOOKUP_TABLE default
9.507462
9.597071
9.683918
9.767533
9.847287
9.922271
9.991153
10.052057
10.102545
10.139884
10.161664
10.166634
10.155280
10.129710
10.092934
10.048023
9.997560
9.943453
9.886974
9.828900
9.769641
9.709361
9.648055
9.585610
9.521851
9.456571
9.389561
9.320634
9.249646
9.176509
9.614320
9.708962
9.800965
9.889903
9.975189
10.055921
10.130690
10.197379
10.253078
10.294342
10.317995
10.322323
10.307933
10.277591
10.235157
10.184412
10.128384
10.069190
10.008163
9.946050
9.883200
9.819696
9.755452
9.690278
9.623924
9.556119
9.486597
9.415122
9.341512
9.265656
9.719470
9.818934
9.915783
10.009634
10.099941
10.185821
10.265816
10.337617
10.397908
10.442601
10.467804
10.471359
10.454004
10.419152
10.371464
10.315366
10.254269
10.190460
10.125308
10.059530
9.993409
9.926955
9.860003
9.792288
9.723492
9.653282
9.581336
9.507377
9.431187
9.352635
9.822635
9.926596
10.027810
10.125922
10.220416
10.310421
10.394435
10.470005
10.533527
10.580483
10.606512
10.609181
10.589345
10.550882
10.499016
10.438630
10.373420
10.305810
10.237211
10.168325
10.099392
10.030362
9.961006
9.890995
9.819948
9.747478
9.673217
9.596849
9.518131
9.436917
9.923703
10.031742
10.136696
10.238217
10.335810
10.428602
10.515046
10.592589
10.657483
10.705074
10.730917
10.732584
10.711021
10.670258
10.615716
10.552476
10.484399
10.414026
10.342829
10.271527
10.200344
10.129194
10.057800
9.985780
9.912707
9.838144
9.761689
9.682996
9.601807
9.517971
10.022761
10.134401
10.242356
10.346287
10.445731
10.539833
10.627020
10.704696
10.769110
10.815734
10.840387
10.840896
10.818275
10.776437
10.720658
10.655974
10.586292
10.514235
10.441343
10.368375
10.295562
10.222797
10.149773
10.076069
10.001216
9.924747
9.846229
9.765303
9.681706
9.595294
10.120126
10.234857
10.344981
10.450201
10.550151
10.644069
10.730441
10.806708
10.869227
10.913733
10.936459
10.935591
10.912214
10.870015
10.813966
10.748896
10.678652
10.605875
10.532148
10.458259
10.384448
10.310599
10.236379
10.161337
10.084973
10.006795
9.926356
9.843295
9.757357
9.668417
10.216361
10.333660
10.445011
10.550243
10.649224
10.741445
10.825591
10.899256
10.958963
11.000710
11.021085
11.018590
10.994399
10.952026
10.896147
10.831337
10.761291
10.688587
10.614790
10.540684
10.466499
10.392102
10.317133
10.241114
10.163521
10.083844
10.001636
9.916543
9.828336
9.736926
10.312264
10.431604
10.543073
10.646780
10.743069
10.831922
10.912413
10.982403
11.038608
11.077210
11.095001
11.090680
11.065513
11.022941
10.967429
10.903300
10.834037
10.762075
10.688897
10.615232
10.541276
10.466860
10.391594
10.314970
10.236441
10.155489
10.071672
9.984661
9.894266
9.800448
10.408791
10.529647
10.639859
10.740092
10.831558
10.915053
10.990237
11.055327
11.107235
11.142258
11.157275
11.151069
11.124962
11.082346
11.027509
10.964520
10.896614
10.826033
10.754122
10.681527
10.608379
10.534464
10.459350
10.382495
10.303333
10.221340
10.136089
10.047287
9.954797
9.858647
10.506785
10.628647
10.735837
10.830084
10.914094
10.989890
11.057870
11.116612
11.163207
11.194049
11.206085
11.198128
11.171461
11.129330
11.075777
11.014576
10.948690
10.880145
10.810139
10.739214
10.667430
10.594515
10.519991
10.443279
10.363791
10.281001
10.194504
10.104053
10.009581
9.911193
10.606204
10.728595
10.830514
10.915675
10.989247
11.054924
11.113855
11.164857
11.205120
11.231163
11.240061
11.230652
11.204063
11.163222
11.111782
11.053154
10.990007
10.924158
10.856662
10.787965
10.718056
10.646606
10.573086
10.496878
10.417369
10.334033
10.246494
10.154560
10.058240
9.957735
10.704231
10.826734
10.920826
10.993685
11.054185
11.107967
11.156688
11.199141
11.232498
11.253426
11.259208
11.248729
11.222877
11.184118
11.135587
11.080262
11.020505
10.957931
10.893469
10.827479
10.759888
10.690310
10.618166
10.542795
10.463559
10.379933
10.291569
10.198339
10.100340
9.997873
10.791825
10.914099
10.998593
11.057495
11.104218
11.146122
11.184925
11.219133
11.245834
11.261887
11.264849
11.253690
11.229053
11.192896
11.147795
11.096263
11.040343
10.981453
10.920405
10.857482
10.792550
10.725170
10.654711
10.580468
10.501777
10.418111
10.329154
10.234845
10.135372
10.031147
10.851243
10.973027
11.049443
11.097251
11.133435
11.166306
11.197393
11.224966
11.246171
11.258171
11.258873
11.247400
11.224210
11.190828
11.149313
11.101736
11.049827
10.994807
10.937369
10.877719
10.815662
10.750703
10.682158
10.609278
10.531369
10.447903
10.358598
10.263457
10.162763
10.057035
10.863634
10.984736
11.059273
11.104381
11.137336
11.166549
11.193660
11.217187
11.234692
11.243847
11.243014
11.231550
11.209850
11.179130
11.141043
11.097283
11.049294
10.998105
10.944282
10.887949
10.828844
10.766414
10.699921
10.628571
10.551640
10.468601
10.379201
10.283508
10.181894
10.074982
10.827124
10.947421
11.026898
11.078411
11.115992
11.147314
11.174483
11.196780
11.212541
11.220146
11.218514
11.207326
11.187035
11.158693
11.123675
11.083386
11.039022
10.991436
10.941066
10.887945
10.831739
10.771833
10.707437
10.637713
10.561913
10.479508
10.390276
10.294341
10.192157
10.084439
10.759094
10.878534
10.965547
11.027669
11.074300
11.111544
11.141770
11.165102
11.180767
11.187926
11.186108
11.175380
11.156348
11.130024
11.097622
11.060341
11.019186
10.974847
10.927641
10.877506
10.824034
10.766550
10.704213
10.636148
10.561589
10.480008
10.391210
10.295371
10.193010
10.084918
10.678540
10.797092
10.890618
10.962752
11.018901
11.063248
11.097935
11.123614
11.140252
11.147719
11.146123
11.135936
11.117975
11.093297
11.063042
11.028278
10.989861
10.948347
10.903939
10.856484
10.805503
10.750263
10.689883
10.623461
10.550218
10.469635
10.381541
10.286150
10.184035
10.076042
10.595944
10.713540
10.811497
10.891129
10.955108
11.005903
11.045102
11.073520
11.091595
11.099745
11.098570
11.088915
11.071826
11.048450
11.019913
10.987201
10.951062
10.911938
10.869934
10.824813
10.776034
10.722818
10.664254
10.599423
10.527550
10.448126
10.361001
10.266422
10.164991
10.057593
10.514816
10.631302
10.731792
10.816319
10.885872
10.941644
10.984611
11.015513
11.035024
11.043931
11.043213
11.034029
11.017636
10.995285
10.968114
10.937060
10.902789
10.865652
10.825670
10.782537
10.735662
10.684235
10.627328
10.564026
10.493563
10.415448
10.329554
10.236144
10.135838
10.029532
10.435378
10.550479
10.651972
10.739208
10.812202
10.871294
10.916945
10.949726
10.970392
10.979951
10.979648
10.970878
10.955069
10.933561
10.907509
10.877817
10.845086
10.809596
10.771299
10.729838
10.684588
10.634724
10.579323
10.517486
10.448470
10.371811
10.287397
10.195501
10.096745
9.992015
10.356795
10.470096
10.571294
10.659418
10.733970
10.794782
10.841950
10.875870
10.897295
10.907341
10.907411
10.899054
10.883810
10.863078
10.838020
10.809506
10.778087
10.743986
10.707104
10.667050
10.623185
10.574690
10.520664
10.460242
10.392716
10.317650
10.234953
10.144897
10.048087
9.945386
10.278208
10.389152
10.488826
10.576201
10.650604
10.711635
10.759179
10.793492
10.815275
10.825664
10.826122
10.818262
10.803673
10.783767
10.759695
10.732290
10.702057
10.669176
10.633516
10.594671
10.552007
10.504730
10.451980
10.392942
10.326954
10.253617
10.172854
10.084931
9.990428
9.890164
10.199178
10.307075
10.403938
10.488945
10.561559
10.621390
10.668240
10.702257
10.724051
10.734699
10.735631
10.728441
10.714690
10.695763
10.672770
10.646501
10.617421
10.585677
10.551124
10.513358
10.471770
10.425611
10.374078
10.316418
10.252027
10.180545
10.101910
10.016379
9.924493
9.827019
10.119862
10.223894
10.316470
10.397371
10.466554
10.523842
10.569033
10.602162
10.623701
10.634592
10.636145
10.629851
10.617183
10.599450
10.577696
10.552661
10.524772
10.494155
10.460663
10.423914
10.383339
10.338249
10.287913
10.231651
10.168924
10.099414
10.023076
9.940150
9.851137
9.756744
10.040961
10.140146
10.226597
10.301431
10.365550
10.419101
10.461844
10.493640
10.514753
10.525924
10.528270
10.523112
10.511782
10.495474
10.475146
10.451480
10.424865
10.395416
10.362996
10.327258
10.287687
10.243665
10.194544
10.139723
10.078733
10.011302
9.937399
9.857248
9.771305
9.680211
9.963107
10.056204
10.134188
10.200867
10.258521
10.307486
10.347294
10.377518
10.398149
10.409674
10.412976
10.409164
10.399393
10.384715
10.365989
10.343828
10.318588
10.290378
10.259080
10.224390
10.185858
10.142944
10.095086
10.041769
9.982592
9.917330
9.845968
9.768714
9.685977
9.598336
9.884466
9.970108
10.037349
10.094498
10.145154
10.189378
10.226227
10.254908
10.275125
10.287109
10.291500
10.289185
10.281128
10.268228
10.251235
10.230693
10.206923
10.180031
10.149925
10.116349
10.078920
10.037180
9.990656
9.938915
9.881626
9.818608
9.749864
9.675583
9.596135
9.512032
9.795550
9.873716
9.931020
9.980033
10.024917
10.065235
10.099641
10.127087
10.147076
10.159639
10.165211
10.164474
10.158207
10.147161
10.131976
10.113124
10.090895
10.065394
10.036554
10.004168
9.967922
9.927440
9.882330
9.832241
9.776908
9.716192
9.650111
9.578841
9.502712
9.422181
9.617833
9.713273
9.806358
9.896750
9.983957
10.067175
10.145036
10.215318
10.274742
10.319167
10.344558
10.348622
10.332065
10.298363
10.252237
10.198101
10.139291
10.077992
10.015478
9.952402
9.889010
9.825297
9.761101
9.696168
9.630188
9.562838
9.493800
9.422790
9.349582
9.274029
9.730356
9.831488
9.930523
10.027225
10.121231
10.211847
10.297736
10.376468
10.444089
10.495158
10.523977
10.527107
10.505501
10.464114
10.409382
10.346921
10.280633
10.212852
10.144796
10.076983
10.009515
9.942244
9.874883
9.807065
9.738383
9.668424
9.596793
9.523143
9.447197
9.368772
9.841173
9.947768
10.052406
10.154948
10.255150
10.352444
10.445558
10.531936
10.607074
10.664323
10.696293
10.698322
10.671643
10.622795
10.559935
10.489769
10.416652
10.342992
10.269921
10.197823
10.126655
10.056141
9.985874
9.915381
9.844161
9.771718
9.697586
9.621356
9.542706
9.461421
9.950022
10.061712
10.171391
10.278984
10.384328
10.486929
10.585536
10.677479
10.757870
10.819252
10.853106
10.853961
10.823285
10.768743
10.699683
10.623560
10.545056
10.466657
10.389464
10.313779
10.239464
10.166144
10.093316
10.020416
9.946863
9.872086
9.795555
9.716811
9.635494
9.551368
10.056857
10.173164
10.287145
10.398748
10.507840
10.613920
10.715658
10.810215
10.892463
10.954734
10.988414
10.988076
10.955314
10.897970
10.825635
10.746036
10.664088
10.582434
10.502249
10.423849
10.347067
10.271472
10.196497
10.121508
10.045856
9.968910
9.890092
9.808901
9.724954
9.638005
10.161909
10.282288
10.399703
10.514105
10.625376
10.732978
10.835442
10.929728
11.010611
11.070726
11.102276
11.100638
11.067451
11.009908
10.937001
10.856284
10.772799
10.689393
10.607401
10.527222
10.448716
10.371436
10.294774
10.218047
10.140554
10.061620
9.980627
9.897056
9.810512
9.720757
10.265748
10.389626
10.509496
10.625355
10.737171
10.844446
10.945655
11.037636
11.115202
11.171509
11.199845
11.196608
11.163506
11.106898
11.034875
10.954557
10.870954
10.787051
10.704326
10.623274
10.543796
10.465443
10.387584
10.309495
10.230437
10.149702
10.066653
9.980766
9.891655
9.799109
10.369359
10.496151
10.617357
10.733130
10.843723
10.948905
11.047309
11.135840
11.209433
11.261651
11.286547
11.281277
11.247732
11.191785
11.120833
11.041512
10.958636
10.875165
10.792616
10.711523
10.631801
10.552992
10.474437
10.395380
10.315049
10.232713
10.147732
10.059594
9.967946
9.872622
10.474242
10.603361
10.724519
10.838264
10.945488
11.046586
11.140648
11.224851
11.294280
11.342641
11.364227
11.356553
11.321788
11.265778
11.195589
11.117441
11.035825
10.953513
10.871929
10.791562
10.712296
10.633643
10.554905
10.475287
10.393989
10.310266
10.223487
10.133171
10.039021
9.940936
10.582543
10.713397
10.832644
10.941680
11.042653
11.137068
11.224752
11.303278
11.367883
11.412237
11.430541
11.420379
11.384177
11.327942
11.258593
11.181983
11.102216
11.021776
10.941912
10.863008
10.784882
10.706989
10.628583
10.548825
10.466883
10.382005
10.293578
10.201172
10.104564
10.003745
10.697134
10.829144
10.943757
11.044189
11.134949
11.219271
11.297851
11.368600
11.426853
11.466278
11.481041
11.468727
11.431808
11.376223
11.308607
11.234404
11.157328
11.079575
11.002205
10.925489
10.849164
10.772625
10.695063
10.615590
10.533340
10.447556
10.357653
10.263265
10.164266
10.060758
10.821301
10.953926
11.059691
11.145829
11.221233
11.291507
11.358003
11.418588
11.468545
11.501710
11.512538
11.498721
11.462457
11.409113
11.344699
11.274137
11.200779
11.126585
11.052478
10.978641
10.904743
10.830116
10.753891
10.675123
10.592908
10.506482
10.415296
10.319064
10.217768
10.111647
10.956693
11.089475
11.179892
11.244071
11.298501
11.351283
11.403509
11.452294
11.492614
11.518611
11.525326
11.510681
11.476365
11.426763
11.366944
11.301191
11.232497
11.162649
11.092480
11.022121
10.951195
10.878978
10.804537
10.726866
10.645020
10.558227
10.465976
10.368069
10.264616
10.156002
11.095574
11.228175
11.295255
11.330342
11.360546
11.394973
11.432904
11.469996
11.500752
11.519697
11.522578
11.507604
11.475926
11.430854
11.376410
11.316171
11.252757
11.187791
11.122042
11.055605
10.988069
10.918656
10.846370
10.770141
10.688974
10.602087
10.509011
10.409641
10.304223
10.193300
11.203412
11.335586
11.378611
11.387442
11.398041
11.418252
11.444969
11.472562
11.495341
11.508366
11.508117
11.493131
11.464166
11.423633
11.374614
11.320005
11.262040
11.202158
11.141051
11.078775
11.014879
10.948530
10.878666
10.804146
10.723925
10.637209
10.543570
10.442995
10.335871
10.222902
11.222075
11.353572
11.392795
11.397017
11.402911
11.418072
11.439265
11.461094
11.478466
11.487285
11.484834
11.470050
11.443510
11.407016
11.362939
11.313592
11.260838
11.205913
11.149404
11.091307
11.031114
10.967934
10.900631
10.827996
10.748934
10.662636
10.568712
10.467245
10.358751
10.244090
11.144428
11.275084
11.333855
11.357634
11.375050
11.395047
11.416866
11.436973
11.451691
11.458093
11.454358
11.439917
11.415378
11.382216
11.342325
11.297580
11.249517
11.199164
11.146980
11.092874
11.036270
10.976205
10.911473
10.840800
10.763044
10.677388
10.583478
10.481480
10.372031
10.256125
11.026607
11.156452
11.237348
11.286992
11.322979
11.353599
11.380354
11.401887
11.416200
11.421651
11.417358
11.403318
11.380330
11.349760
11.313230
11.272307
11.228265
11.181934
11.133634
11.083171
11.029888
10.972748
10.910481
10.841755
10.765395
10.680582
10.586996
10.484874
10.374951
10.258335
10.909219
11.038341
11.134206
11.204131
11.257283
11.299482
11.332881
11.357542
11.372843
11.378291
11.373885
11.360205
11.338335
11.309676
11.275722
11.237844
11.197110
11.154176
11.109223
11.061950
11.011614
10.957110
10.897111
10.830248
10.755328
10.671539
10.578593
10.476784
10.366920
10.250188
10.803094
10.931510
11.036067
11.119253
11.185204
11.237213
11.277003
11.305198
11.322046
11.327926
11.323582
11.310138
11.288996
11.261671
11.229618
11.194083
11.155982
11.115819
11.073648
11.029064
10.981245
10.929029
10.871051
10.805926
10.732462
10.649862
10.557874
10.456829
10.347581
10.231361
10.707199
10.834790
10.944074
11.035296
11.109831
11.169088
11.214039
11.245346
11.263698
11.270069
11.265782
11.252428
11.231710
11.205280
11.174600
11.140836
11.104785
11.066825
11.026897
10.984506
10.938765
10.888476
10.832257
10.768731
10.696725
10.615474
10.524754
10.424919
10.316843
10.201769
10.618056
10.744512
10.855996
10.951677
11.031445
11.095477
11.144052
11.177654
11.197151
11.203885
11.199599
11.186247
11.165784
11.139986
11.110330
11.077925
11.043471
11.007242
10.969086
10.928438
10.884369
10.835664
10.780957
10.718898
10.648358
10.568609
10.479455
10.381262
10.274894
10.161577
10.532512
10.657307
10.769115
10.866619
10.948954
11.015564
11.066225
11.101199
11.121389
11.128340
11.124062
11.110761
11.090566
11.065335
11.036549
11.005265
10.972104
10.937255
10.900496
10.861217
10.818471
10.771057
10.717647
10.656949
10.587892
10.509796
10.422490
10.326339
10.222177
10.111185
10.448412
10.570792
10.681234
10.778317
10.860908
10.928114
10.979407
11.014863
11.035341
11.042451
11.038330
11.025303
11.005580
10.981049
10.953167
10.922937
10.890913
10.857222
10.821596
10.783404
10.741710
10.695356
10.643080
10.583668
10.516125
10.439829
10.354631
10.260883
10.159374
10.051216
10.364783
10.483784
10.591077
10.685522
10.766159
10.832088
10.882658
10.917801
10.938264
10.945602
10.941928
10.929555
10.910674
10.887134
10.860342
10.831242
10.800333
10.767699
10.733049
10.695760
10.654936
10.609486
10.558237
10.500075
10.434095
10.359739
10.276880
10.185847
10.087371
9.982480
10.282012
10.396443
10.498442
10.587779
10.664190
10.727043
10.775658
10.809812
10.830066
10.837794
10.834946
10.823696
10.806113
10.783948
10.758529
10.730734
10.701016
10.669436
10.635705
10.599231
10.559182
10.514555
10.464288
10.407381
10.343030
10.270744
10.190418
10.102355
10.007217
9.905937
10.202170
10.310434
10.404121
10.485298
10.555091
10.613208
10.658838
10.691491
10.711437
10.719756
10.718117
10.708447
10.692615
10.672220
10.648482
10.622211
10.593820
10.563363
10.530571
10.494906
10.455615
10.411803
10.362532
10.306925
10.244282
10.174183
10.096546
10.011644
9.920068
9.822650
10.129509
10.228883
10.309187
10.378267
10.439134
10.491258
10.533244
10.564119
10.583753
10.592852
10.592734
10.585010
10.571296
10.553003
10.531220
10.506684
10.479773
10.450545
10.418767
10.383966
10.345483
10.302540
10.254327
10.200094
10.139249
10.071439
9.996604
9.914991
9.827118
9.733722
10.069486
10.154066
10.212442
10.265479
10.316174
10.361972
10.400254
10.429392
10.448816
10.458855
10.460460
10.454913
10.443550
10.427577
10.407945
10.385308
10.360016
10.332134
10.301471
10.267630
10.230049
10.188072
10.141015
10.088253
10.029296
9.963858
9.891901
9.813646
9.729546
9.640244
10.009973
10.072663
10.104936
10.143234
10.185487
10.226117
10.261372
10.289151
10.308578
10.319684
10.323105
10.319818
10.310896
10.297336
10.279951
10.259313
10.235740
10.209305
10.179866
10.147098
10.110540
10.069649
10.023865
9.972679
9.915696
9.852693
9.783653
9.708774
9.628453
9.543248
9.726079
9.827280
9.926556
10.023764
10.118662
10.210710
10.298720
10.380309
10.451284
10.505483
10.536099
10.538849
10.514829
10.469993
10.411843
10.346601
10.278339
10.209326
10.140638
10.072657
10.005369
9.938543
9.871824
9.804791
9.736990
9.667958
9.597253
9.524478
9.449309
9.371524
9.844098
9.951675
10.057748
10.162360
10.265532
10.367046
10.466022
10.560133
10.644450
10.710543
10.747858
10.749105
10.715965
10.658023
10.586362
10.509095
10.430797
10.353592
10.278233
10.204773
10.132925
10.062235
9.992166
9.922145
9.851589
9.779921
9.706599
9.631140
9.553151
9.472362
9.960345
10.074057
10.186550
10.298042
10.408804
10.518952
10.627989
10.733848
10.831192
10.909489
10.953915
10.953346
10.910231
10.838695
10.753740
10.665111
10.577565
10.492912
10.411520
10.333112
10.257140
10.182940
10.109808
10.037029
9.963895
9.889724
9.813878
9.735793
9.655011
9.571217
10.074559
10.193997
10.312271
10.429713
10.546756
10.663718
10.780322
10.894648
11.001125
11.087878
11.137082
11.134739
11.083945
11.002284
10.907497
10.810353
10.715706
10.625174
10.538899
10.456401
10.376955
10.299746
10.223935
10.148689
10.073192
9.996666
9.918391
9.837732
9.754177
9.667377
10.186742
10.311373
10.434578
10.556729
10.678296
10.799584
10.920180
11.037874
11.146687
11.234416
11.283264
11.279540
11.226483
11.141668
11.043044
10.941769
10.843050
10.748732
10.659053
10.573542
10.491427
10.411818
10.333787
10.256412
10.178791
10.100067
10.019453
9.936261
9.849940
9.760122
10.297245
10.426466
10.553612
10.679048
10.803219
10.926266
11.047376
11.163683
11.268655
11.350647
11.394501
11.389577
11.338864
11.257001
11.159920
11.058556
10.958656
10.862623
10.771061
10.683680
10.599771
10.518432
10.438690
10.359558
10.280069
10.199307
10.116435
10.030733
9.941635
9.848776
10.406866
10.540046
10.670027
10.797209
10.922081
11.044697
11.163894
11.276216
11.374746
11.448757
11.486142
11.479537
11.431823
11.354565
11.261164
11.161841
11.062650
10.966497
10.874368
10.786195
10.701362
10.618987
10.538071
10.457578
10.376492
10.293852
10.208796
10.120593
10.028691
9.932753
10.516978
10.653480
10.785023
10.912189
11.035778
11.156083
11.271968
11.379796