# vtk DataFile Version 3.0
vtk output
ASCII
DATASET STRUCTURED_GRID
DIMENSIONS 30 30 30
POINTS 27000 float
0.000000 0.000000 0.000000
0.000000 0.000000 0.333333
0.000000 0.000000 0.666667
0.000000 0.000000 1.000000
0.000000 0.000000 1.333333
0.000000 0.000000 1.666667
0.000000 0.000000 2.000000
0.000000 0.000000 2.333333
0.000000 0.000000 2.666667
0.000000 0.000000 3.000000
0.000000 0.000000 3.333333
0.000000 0.000000 3.666667
0.000000 0.000000 4.000000
0.000000 0.000000 4.333333
0.000000 0.000000 4.666667
0.000000 0.000000 5.000000
0.000000 0.000000 5.333333
0.000000 0.000000 5.666667
0.000000 0.000000 6.000000
0.000000 0.000000 6.333333
0.000000 0.000000 6.666667
0.000000 0.000000 7.000000
0.000000 0.000000 7.333333
0.000000 0.000000 7.666667
0.000000 0.000000 8.000000
0.000000 0.000000 8.333333
0.000000 0.000000 8.666667
0.000000 0.000000 9.000000
0.000000 0.000000 9.333333
0.000000 0.000000 9.666667
0.000000 0.333333 0.000000
0.000000 0.333333 0.333333
0.000000 0.333333 0.666667
0.000000 0.333333 1.000000
0.000000 0.333333 1.333333
0.000000 0.333333 1.666667
0.000000 0.333333 2.000000
0.000000 0.333333 2.333333
0.000000 0.333333 2.666667
0.000000 0.333333 3.000000
0.000000 0.333333 3.333333
0.000000 0.333333 3.666667
0.000000 0.333333 4.000000
0.000000 0.333333 4.333333
0.000000 0.333333 4.666667
0.000000 0.333333 5.000000
0.000000 0.333333 5.333333
0.000000 0.333333 5.666667
0.000000 0.333333 6.000000
0.000000 0.333333 6.333333
0.000000 0.333333 6.666667
0.000000 0.333333 7.000000
0.000000 0.333333 7.333333
0.000000 0.333333 7.666667
0.000000 0.333333 8.000000
0.000000 0.333333 8.333333
0.000000 0.333333 8.666667
0.000000 0.333333 9.000000
0.000000 0.333333 9.333333
0.000000 0.333333 9.666667
0.000000 0.666667 0.000000
0.000000 0.666667 0.333333
0.000000 0.666667 0.666667
0.000000 0.666667 1.000000
0.000000 0.666667 1.333333
0.000000 0.666667 1.666667
0.000000 0.666667 2.000000
0.000000 0.666667 2.333333
0.000000 0.666667 2.666667
0.000000 0.666667 3.000000
0.000000 0.666667 3.333333
0.000000 0.666667 3.666667
0.000000 0.666667 4.000000
0.000000 0.666667 4.333333
0.000000 0.666667 4.666667
0.000000 0.666667 5.000000
0.000000 0.666667 5.333333
0.000000 0.666667 5.666667
0.000000 0.666667 6.000000
0.000000 0.666667 6.333333
0.000000 0.666667 6.666667
0.000000 0.666667 7.000000
0.000000 0.666667 7.333333
0.000000 0.666667 7.666667
0.000000 0.666667 8.000000
0.000000 0.666667 8.333333
0.000000 0.666667 8.666667
0.000000 0.666667 9.000000
0.000000 0.666667 9.333333
0.000000 0.666667 9.666667
0.000000 1.000000 0.000000
0.000000 1.000000 0.333333
0.000000 1.000000 0.666667
0.000000 1.000000 1.000000
0.000000 1.000000 1.333333
0.000000 1.000000 1.666667
0.000000 1.000000 2.000000
0.000000 1.000000 2.333333
0.000000 1.000000 2.666667
0.000000 1.000000 3.000000
0.000000 1.000000 3.333333
0.000000 1.000000 3.666667
0.000000 1.000000 4.000000
0.000000 1.000000 4.333333
0.000000 1.000000 4.666667
0.000000 1.000000 5.000000
0.000000 1.000000 5.333333
0.000000 1.000000 5.666667
0.000000 1.000000 6.000000
0.000000 1.000000 6.333333
0.000000 1.000000 6.666667
0.000000 1.000000 7.000000
0.000000 1.000000 7.333333
0.000000 1.000000 7.666667
0.000000 1.000000 8.000000
0.000000 1.000000 8.333333
0.000000 1.000000 8.666667
0.000000 1.000000 9.000000
0.000000 1.000000 9.333333
0.000000 1.000000 9.666667
0.000000 1.333333 0.000000
0.000000 1.333333 0.333333
0.000000 1.333333 0.666667
0.000000 1.333333 1.000000
0.000000 1.333333 1.333333
0.000000 1.333333 1.666667
0.000000 1.333333 2.000000
0.000000 1.333333 2.333333
0.000000 1.333333 2.666667
0.000000 1.333333 3.000000
0.000000 1.333333 3.333333
0.000000 1.333333 3.666667
0.000000 1.333333 4.000000
0.000000 1.333333 4.333333
0.000000 1.333333 4.666667
0.000000 1.333333 5.000000
0.000000 1.333333 5.333333
0.000000 1.333333 5.666667
0.000000 1.333333 6.000000
0.000000 1.333333 6.333333
0.000000 1.333333 6.666667
0.000000 1.333333 7.000000
0.000000 1.333333 7.333333
0.000000 1.333333 7.666667
0.000000 1.333333 8.000000
0.000000 1.333333 8.333333
0.000000 1.333333 8.666667
0.000000 1.333333 9.000000
0.000000 1.333333 9.333333
0.000000 1.333333 9.666667
0.000000 1.666667 0.000000
0.000000 1.666667 0.333333
0.000000 1.666667 0.666667
0.000000 1.666667 1.000000
0.000000 1.666667 1.333333
0.000000 1.666667 1.666667
0.000000 1.666667 2.000000
0.000000 1.666667 2.333333
0.000000 1.666667 2.666667
0.000000 1.666667 3.000000
0.000000 1.666667 3.333333
0.000000 1.666667 3.666667
0.000000 1.666667 4.000000
0.000000 1.666667 4.333333
0.000000 1.666667 4.666667
0.000000 1.666667 5.000000
0.000000 1.666667 5.333333
0.000000 1.666667 5.666667
0.000000 1.666667 6.000000
0.000000 1.666667 6.333333
0.000000 1.666667 6.666667
0.000000 1.666667 7.000000
0.000000 1.666667 7.333333
0.000000 1.666667 7.666667
0.000000 1.666667 8.000000
0.000000 1.666667 8.333333
0.000000 1.666667 8.666667
0.000000 1.666667 9.000000
0.000000 1.666667 9.333333
0.000000 1.666667 9.666667
0.000000 2.000000 0.000000
0.000000 2.000000 0.333333
0.000000 2.000000 0.666667
0.000000 2.000000 1.000000
0.000000 2.000000 1.333333
0.000000 2.000000 1.666667
0.000000 2.000000 2.000000
0.000000 2.000000 2.333333
0.000000 2.000000 2.666667
0.000000 2.000000 3.000000
0.000000 2.000000 3.333333
0.000000 2.000000 3.666667
0.000000 2.000000 4.000000
0.000000 2.000000 4.333333
0.000000 2.000000 4.666667
0.000000 2.000000 5.000000
0.000000 2.000000 5.333333
0.000000 2.000000 5.666667
0.000000 2.000000 6.000000
0.000000 2.000000 6.333333
0.000000 2.000000 6.666667
0.000000 2.000000 7.000000
0.000000 2.000000 7.333333
0.000000 2.000000 7.666667
0.000000 2.000000 8.000000
0.000000 2.000000 8.333333
0.000000 2.000000 8.666667
0.000000 2.000000 9.000000
0.000000 2.000000 9.333333
0.000000 2.000000 9.666667
0.000000 2.333333 0.000000
0.000000 2.333333 0.333333
0.000000 2.333333 0.666667
0.000000 2.333333 1.000000
0.000000 2.333333 1.333333
0.000000 2.333333 1.666667
0.000000 2.333333 2.000000
0.000000 2.333333 2.333333
0.000000 2.333333 2.666667
0.000000 2.333333 3.000000
0.000000 2.333333 3.333333
0.000000 2.333333 3.666667
0.000000 2.333333 4.000000
0.000000 2.333333 4.333333
0.000000 2.333333 4.666667
0.000000 2.333333 5.000000
0.000000 2.333333 5.333333
0.000000 2.333333 5.666667
0.000000 2.333333 6.000000
0.000000 2.333333 6.333333
0.000000 2.333333 6.666667
0.000000 2.333333 7.000000
0.000000 2.333333 7.333333
0.000000 2.333333 7.666667
0.000000 2.333333 8.000000
0.000000 2.333333 8.333333
0.000000 2.333333 8.666667
0.000000 2.333333 9.000000
0.000000 2.333333 9.333333
0.000000 2.333333 9.666667
0.000000 2.666667 0.000000
0.000000 2.666667 0.333333
0.000000 2.666667 0.666667
0.000000 2.666667 1.000000
0.000000 2.666667 1.333333
0.000000 2.666667 1.666667
0.000000 2.666667 2.000000
0.000000 2.666667 2.333333
0.000000 2.666667 2.666667
0.000000 2.666667 3.000000
0.000000 2.666667 3.333333
0.000000 2.666667 3.666667
0.000000 2.666667 4.000000
0.000000 2.666667 4.333333
0.000000 2.666667 4.666667
0.000000 2.666667 5.000000
0.000000 2.666667 5.333333
0.000000 2.666667 5.666667
0.000000 2.666667 6.000000
0.000000 2.666667 6.333333
0.000000 2.666667 6.666667
0.000000 2.666667 7.000000
0.000000 2.666667 7.333333
0.000000 2.666667 7.666667
0.000000 2.666667 8.000000
0.000000 2.666667 8.333333
0.000000 2.666667 8.666667
0.000000 2.666667 9.000000
0.000000 2.666667 9.333333
0.000000 2.666667 9.666667
0.000000 3.000000 0.000000
0.000000 3.000000 0.333333
0.000000 3.000000 0.666667
0.000000 3.000000 1.000000
0.000000 3.000000 1.333333
0.000000 3.000000 1.666667
0.000000 3.000000 2.000000
0.000000 3.000000 2.333333
0.000000 3.000000 2.666667
0.000000 3.000000 3.000000
0.000000 3.000000 3.333333
0.000000 3.000000 3.666667
0.000000 3.000000 4.000000
0.000000 3.000000 4.333333
0.000000 3.000000 4.666667
0.000000 3.000000 5.000000
0.000000 3.000000 5.333333
0.000000 3.000000 5.666667
0.000000 3.000000 6.000000
0.000000 3.000000 6.333333
0.000000 3.000000 6.666667
0.000000 3.000000 7.000000
0.000000 3.000000 7.333333
0.000000 3.000000 7.666667
0.000000 3.000000 8.000000
0.000000 3.000000 8.333333
0.000000 3.000000 8.666667
0.000000 3.000000 9.000000
0.000000 3.000000 9.333333
0.000000 3.000000 9.666667
0.000000 3.333333 0.000000
0.000000 3.333333 0.333333
0.000000 3.333333 0.666667
0.000000 3.333333 1.000000
0.000000 3.333333 1.333333
0.000000 3.333333 1.666667
0.000000 3.333333 2.000000
0.000000 3.333333 2.333333
0.000000 3.333333 2.666667
0.000000 3.333333 3.000000
0.000000 3.333333 3.333333
0.000000 3.333333 3.666667
0.000000 3.333333 4.000000
0.000000 3.333333 4.333333
0.000000 3.333333 4.666667
0.000000 3.333333 5.000000
0.000000 3.333333 5.333333
0.000000 3.333333 5.666667
0.000000 3.333333 6.000000
0.000000 3.333333 6.333333
0.000000 3.333333 6.666667
0.000000 3.333333 7.000000
0.000000 3.333333 7.333333
0.000000 3.333333 7.666667
0.000000 3.333333 8.000000
0.000000 3.333333 8.333333
0.000000 3.333333 8.666667
0.000000 3.333333 9.000000
0.000000 3.333333 9.333333
0.000000 3.333333 9.666667
0.000000 3.666667 0.000000
0.000000 3.666667 0.333333
0.000000 3.666667 0.666667
0.000000 3.666667 1.000000
0.000000 3.666667 1.333333
0.000000 3.666667 1.666667
0.000000 3.666667 2.000000
0.000000 3.666667 2.333333
0.000000 3.666667 2.666667
0.000000 3.666667 3.000000
0.000000 3.666667 3.333333
0.000000 3.666667 3.666667
0.000000 3.666667 4.000000
0.000000 3.666667 4.333333
0.000000 3.666667 4.666667
0.000000 3.666667 5.000000
0.000000 3.666667 5.333333
0.000000 3.666667 5.666667
0.000000 3.666667 6.000000
0.000000 3.666667 6.333333
0.000000 3.666667 6.666667
0.000000 3.666667 7.000000
0.000000 3.666667 7.333333
0.000000 3.666667 7.666667
0.000000 3.666667 8.000000
0.000000 3.666667 8.333333
0.000000 3.666667 8.666667
0.000000 3.666667 9.000000
0.000000 3.666667 9.333333
0.000000 3.666667 9.666667
0.000000 4.000000 0.000000
0.000000 4.000000 0.333333
0.000000 4.000000 0.666667
0.000000 4.000000 1.000000
0.000000 4.000000 1.333333
0.000000 4.000000 1.666667
[...]
POINT_DATA 27000
SCALARS cellData float 3
LOOKUP_TABLE default
1.000000 1.000000 0.000000
0.944957 1.000000 0.000000
0.785887 1.000000 0.000000
0.540302 1.000000 0.000000
0.235238 1.000000 0.000000
-0.095724 1.000000 0.000000
-0.416147 1.000000 0.000000
-0.690758 1.000000 0.000000
-0.889327 1.000000 0.000000
-0.989992 1.000000 0.000000
-0.981674 1.000000 0.000000
-0.865287 1.000000 0.000000
-0.653644 1.000000 0.000000
-0.370043 1.000000 0.000000
-0.045706 1.000000 0.000000
0.283662 1.000000 0.000000
0.581803 1.000000 0.000000
0.815896 1.000000 0.000000
0.960170 1.000000 0.000000
0.998743 1.000000 0.000000
0.927368 1.000000 0.000000
0.753902 1.000000 0.000000
0.497443 1.000000 0.000000
0.186222 1.000000 0.000000
-0.145500 1.000000 0.000000
-0.461204 1.000000 0.000000
-0.726136 1.000000 0.000000
-0.911130 1.000000 0.000000
-0.995822 1.000000 0.000000
-0.970887 1.000000 0.000000
1.000000 1.000000 0.000000
0.944957 1.000000 0.000000
0.785887 1.000000 0.000000
0.540302 1.000000 0.000000
0.235238 1.000000 0.000000
-0.095724 1.000000 0.000000
-0.416147 1.000000 0.000000
-0.690758 1.000000 0.000000
-0.889327 1.000000 0.000000
-0.989992 1.000000 0.000000
-0.981674 1.000000 0.000000
-0.865287 1.000000 0.000000
-0.653644 1.000000 0.000000
-0.370043 1.000000 0.000000
-0.045706 1.000000 0.000000
0.283662 1.000000 0.000000
0.581803 1.000000 0.000000
0.815896 1.000000 0.000000
0.960170 1.000000 0.000000
0.998743 1.000000 0.000000
0.927368 1.000000 0.000000
0.753902 1.000000 0.000000
0.497443 1.000000 0.000000
0.186222 1.000000 0.000000
-0.145500 1.000000 0.000000
-0.461204 1.000000 0.000000
-0.726136 1.000000 0.000000
-0.911130 1.000000 0.000000
-0.995822 1.000000 0.000000
-0.970887 1.000000 0.000000
1.000000 1.000000 0.000000
0.944957 1.000000 0.000000
0.785887 1.000000 0.000000
0.540302 1.000000 0.000000
0.235238 1.000000 0.000000
-0.095724 1.000000 0.000000
-0.416147 1.000000 0.000000
-0.690758 1.000000 0.000000
-0.889327 1.000000 0.000000
-0.989992 1.000000 0.000000
-0.981674 1.000000 0.000000
-0.865287 1.000000 0.000000
-0.653644 1.000000 0.000000
-0.370043 1.000000 0.000000
-0.045706 1.000000 0.000000
0.283662 1.000000 0.000000
0.581803 1.000000 0.000000
0.815896 1.000000 0.000000
0.960170 1.000000 0.000000
0.998743 1.000000 0.000000
0.927368 1.000000 0.000000
0.753902 1.000000 0.000000
0.497443 1.000000 0.000000
0.186222 1.000000 0.000000
-0.145500 1.000000 0.000000
-0.461204 1.000000 0.000000
-0.726136 1.000000 0.000000
-0.911130 1.000000 0.000000
-0.995822 1.000000 0.000000
-0.970887 1.000000 0.000000
1.000000 1.000000 0.000000
0.944957 1.000000 0.000000
0.785887 1.000000 0.000000
0.540302 1.000000 0.000000
0.235238 1.000000 0.000000
-0.095724 1.000000 0.000000
-0.416147 1.000000 0.000000
-0.690758 1.000000 0.000000
-0.889327 1.000000 0.000000
-0.989992 1.000000 0.000000
-0.981674 1.000000 0.000000
-0.865287 1.000000 0.000000
-0.653644 1.000000 0.000000
-0.370043 1.000000 0.000000
-0.045706 1.000000 0.000000
0.283662 1.000000 0.000000
0.581803 1.000000 0.000000
0.815896 1.000000 0.000000
0.960170 1.000000 0.000000
0.998743 1.000000 0.000000
0.927368 1.000000 0.000000
0.753902 1.000000 0.000000
0.497443 1.000000 0.000000
0.186222 1.000000 0.000000
-0.145500 1.000000 0.000000
-0.461204 1.000000 0.000000
-0.726136 1.000000 0.000000
-0.911130 1.000000 0.000000
-0.995822 1.000000 0.000000
-0.970887 1.000000 0.000000
1.000000 1.000000 0.000000
0.944957 1.000000 0.000000
0.785887 1.000000 0.000000
0.540302 1.000000 0.000000
0.235238 1.000000 0.000000
-0.095724 1.000000 0.000000
-0.416147 1.000000 0.000000
-0.690758 1.000000 0.000000
-0.889327 1.000000 0.000000
-0.989992 1.000000 0.000000
-0.981674 1.000000 0.000000
-0.865287 1.000000 0.000000
-0.653644 1.000000 0.000000
-0.370043 1.000000 0.000000
-0.045706 1.000000 0.000000
0.283662 1.000000 0.000000
0.581803 1.000000 0.000000
0.815896 1.000000 0.000000
0.960170 1.000000 0.000000
0.998743 1.000000 0.000000
0.927368 1.000000 0.000000
0.753902 1.000000 0.000000
0.497443 1.000000 0.000000
0.186222 1.000000 0.000000
-0.145500 1.000000 0.000000
-0.461204 1.000000 0.000000
-0.726136 1.000000 0.000000
-0.911130 1.000000 0.000000
-0.995822 1.000000 0.000000
-0.970887 1.000000 0.000000
1.000000 1.000000 0.000000
0.944957 1.000000 0.000000
0.785887 1.000000 0.000000
0.540302 1.000000 0.000000
0.235238 1.000000 0.000000
-0.095724 1.000000 0.000000
-0.416147 1.000000 0.000000
-0.690758 1.000000 0.000000
-0.889327 1.000000 0.000000
-0.989992 1.000000 0.000000
-0.981674 1.000000 0.000000
-0.865287 1.000000 0.000000
-0.653644 1.000000 0.000000
-0.370043 1.000000 0.000000
-0.045706 1.000000 0.000000
0.283662 1.000000 0.000000
0.581803 1.000000 0.000000
0.815896 1.000000 0.000000
0.960170 1.000000 0.000000
0.998743 1.000000 0.000000
0.927368 1.000000 0.000000
0.753902 1.000000 0.000000
0.497443 1.000000 0.000000
0.186222 1.000000 0.000000
-0.145500 1.000000 0.000000
-0.461204 1.000000 0.000000
-0.726136 1.000000 0.000000
-0.911130 1.000000 0.000000
-0.995822 1.000000 0.000000
-0.970887 1.000000 0.000000
1.000000 1.000000 0.000000
0.944957 1.000000 0.000000
0.785887 1.000000 0.000000
0.540302 1.000000 0.000000
0.235238 1.000000 0.000000
-0.095724 1.000000 0.000000
-0.416147 1.000000 0.000000
-0.690758 1.000000 0.000000
-0.889327 1.000000 0.000000
-0.989992 1.000000 0.000000
-0.981674 1.000000 0.000000
-0.865287 1.000000 0.000000
-0.653644 1.000000 0.000000
-0.370043 1.000000 0.000000
-0.045706 1.000000 0.000000
0.283662 1.000000 0.000000
0.581803 1.000000 0.000000
0.815896 1.000000 0.000000
0.960170 1.000000 0.000000
0.998743 1.000000 0.000000
0.927368 1.000000 0.000000
0.753902 1.000000 0.000000
0.497443 1.000000 0.000000
0.186222 1.000000 0.000000
-0.145500 1.000000 0.000000
-0.461204 1.000000 0.000000
-0.726136 1.000000 0.000000
-0.911130 1.000000 0.000000
-0.995822 1.000000 0.000000
-0.970887 1.000000 0.000000
1.000000 1.000000 0.000000
0.944957 1.000000 0.000000
0.785887 1.000000 0.000000
0.540302 1.000000 0.000000
0.235238 1.000000 0.000000
-0.095724 1.000000 0.000000
-0.416147 1.000000 0.000000
-0.690758 1.000000 0.000000
-0.889327 1.000000 0.000000
-0.989992 1.000000 0.000000
-0.981674 1.000000 0.000000
-0.865287 1.000000 0.000000
-0.653644 1.000000 0.000000
-0.370043 1.000000 0.000000
-0.045706 1.000000 0.000000
0.283662 1.000000 0.000000
0.581803 1.000000 0.000000
0.815896 1.000000 0.000000
0.960170 1.000000 0.000000
0.998743 1.000000 0.000000
0.927368 1.000000 0.000000
0.753902 1.000000 0.000000
0.497443 1.000000 0.000000
0.186222 1.000000 0.000000
-0.145500 1.000000 0.000000
-0.461204 1.000000 0.000000
-0.726136 1.000000 0.000000
-0.911130 1.000000 0.000000
-0.995822 1.000000 0.000000
-0.970887 1.000000 0.000000
1.000000 1.000000 0.000000
0.944957 1.000000 0.000000
0.785887 1.000000 0.000000
0.540302 1.000000 0.000000
0.235238 1.000000 0.000000
-0.095724 1.000000 0.000000
-0.416147 1.000000 0.000000
-0.690758 1.000000 0.000000
-0.889327 1.000000 0.000000
-0.989992 1.000000 0.000000
-0.981674 1.000000 0.000000
-0.865287 1.000000 0.000000
-0.653644 1.000000 0.000000
-0.370043 1.000000 0.000000
-0.045706 1.000000 0.000000
0.283662 1.000000 0.000000
0.581803 1.000000 0.000000
0.815896 1.000000 0.000000
0.960170 1.000000 0.000000
0.998743 1.000000 0.000000
0.927368 1.000000 0.000000
0.753902 1.000000 0.000000
0.497443 1.000000 0.000000
0.186222 1.000000 0.000000
-0.145500 1.000000 0.000000
-0.461204 1.000000 0.000000
-0.726136 1.000000 0.000000
-0.911130 1.000000 0.000000
-0.995822 1.000000 0.000000
-0.970887 1.000000 0.000000
1.000000 1.000000 0.000000
0.944957 1.000000 0.000000
0.785887 1.000000 0.000000
0.540302 1.000000 0.000000
0.235238 1.000000 0.000000
-0.095724 1.000000 0.000000
-0.416147 1.000000 0.000000
-0.690758 1.000000 0.000000
-0.889327 1.000000 0.000000
-0.989992 1.000000 0.000000
-0.981674 1.000000 0.000000
-0.865287 1.000000 0.000000
-0.653644 1.000000 0.000000
-0.370043 1.000000 0.000000
-0.045706 1.000000 0.000000
0.283662 1.000000 0.000000
0.581803 1.000000 0.000000
0.815896 1.000000 0.000000
0.960170 1.000000 0.000000
0.998743 1.000000 0.000000
0.927368 1.000000 0.000000
0.753902 1.000000 0.000000
0.497443 1.000000 0.000000
0.186222 1.000000 0.000000
-0.145500 1.000000 0.000000
-0.461204 1.000000 0.000000
-0.726136 1.000000 0.000000
-0.911130 1.000000 0.000000
-0.995822 1.000000 0.000000
-0.970887 1.000000 0.000000
1.000000 1.000000 0.000000
0.944957 1.000000 0.000000
0.785887 1.000000 0.000000
0.540302 1.000000 0.000000
0.235238 1.000000 0.000000
-0.095724 1.000000 0.000000
-0.416147 1.000000 0.000000
-0.690758 1.000000 0.000000
-0.889327 1.000000 0.000000
-0.989992 1.000000 0.000000
-0.981674 1.000000 0.000000
-0.865287 1.000000 0.000000
-0.653644 1.000000 0.000000
-0.370043 1.000000 0.000000
-0.045706 1.000000 0.000000
0.283662 1.000000 0.000000
0.581803 1.000000 0.000000
0.815896 1.000000 0.000000
0.960170 1.000000 0.000000
0.998743 1.000000 0.000000
0.927368 1.000000 0.000000
0.753902 1.000000 0.000000
0.497443 1.000000 0.000000
0.186222 1.000000 0.000000
-0.145500 1.000000 0.000000
-0.461204 1.000000 0.000000
-0.726136 1.000000 0.000000
-0.911130 1.000000 0.000000
-0.995822 1.000000 0.000000
-0.970887 1.000000 0.000000
1.000000 1.000000 0.000000
0.944957 1.000000 0.000000
0.785887 1.000000 0.000000
0.540302 1.000000 0.000000
0.235238 1.000000 0.000000
-0.095724 1.000000 0.000000
-0.416147 1.000000 0.000000
-0.690758 1.000000 0.000000
-0.889327 1.000000 0.000000
-0.989992 1.000000 0.000000
-0.981674 1.000000 0.000000
-0.865287 1.000000 0.000000
-0.653644 1.000000 0.000000
-0.370043 1.000000 0.000000
-0.045706 1.000000 0.000000
0.283662 1.000000 0.000000
0.581803 1.000000 0.000000
0.815896 1.000000 0.000000
0.960170 1.000000 0.000000
0.998743 1.000000 0.000000
0.927368 1.000000 0.000000
0.753902 1.000000 0.000000
0.497443 1.000000 0.000000
0.186222 1.000000 0.000000
-0.145500 1.000000 0.000000
-0.461204 1.000000 0.000000
-0.726136 1.000000 0.000000
-0.911130 1.000000 0.000000
-0.995822 1.000000 0.000000
-0.970887 1.000000 0.000000
1.000000 1.000000 0.000000
0.944957 1.000000 0.000000
0.785887 1.000000 0.000000
0.540302 1.000000 0.000000
0.235238 1.000000 0.000000
-0.095724 1.000000 0.000000
-0.416147 1.000000 0.000000
-0.690758 1.000000 0.000000
-0.889327 1.000000 0.000000
-0.989992 1.000000 0.000000
-0.981674 1.000000 0.000000
-0.865287 1.000000 0.000000
-0.653644 1.000000 0.000000
-0.370043 1.000000 0.000000
-0.045706 1.000000 0.000000
0.283662 1.000000 0.000000
0.581803 1.000000 0.000000
0.815896 1.000000 0.000000
0.960170 1.000000 0.000000
0.998743 1.000000 0.000000
0.927368 1.000000 0.000000
0.753902 1.000000 0.000000
0.497443 1.000000 0.000000
0.186222 1.000000 0.000000
-0.145500 1.000000 0.000000
-0.461204 1.000000 0.000000
-0.726136 1.000000 0.000000
-0.911130 1.000000 0.000000
-0.995822 1.000000 0.000000
-0.970887 1.000000 0.000000
1.000000 1.000000 0.000000
0.944957 1.000000 0.000000
0.785887 1.000000 0.000000
0.540302 1.000000 0.000000
0.235238 1.000000 0.000000
-0.095724 1.000000 0.000000
-0.416147 1.000000 0.000000
-0.690758 1.000000 0.000000
-0.889327 1.000000 0.000000
-0.989992 1.000000 0.000000
-0.981674 1.000000 0.000000
-0.865287 1.000000 0.000000
-0.653644 1.000000 0.000000
-0.370043 1.000000 0.000000
-0.045706 1.000000 0.000000
0.283662 1.000000 0.000000
0.581803 1.000000 0.000000
0.815896 1.000000 0.000000
0.960170 1.000000 0.000000
0.998743 1.000000 0.000000
0.927368 1.000000 0.000000
0.753902 1.000000 0.000000
0.497443 1.000000 0.000000
0.186222 1.000000 0.000000
-0.145500 1.000000 0.000000
-0.461204 1.000000 0.000000
-0.726136 1.000000 0.000000
-0.911130 1.000000 0.000000
-0.995822 1.000000 0.000000
-0.970887 1.000000 0.000000
1.000000 1.000000 0.000000
0.944957 1.000000 0.000000
0.785887 1.000000 0.000000
0.540302 1.000000 0.000000
0.235238 1.000000 0.000000
-0.095724 1.000000 0.000000
-0.416147 1.000000 0.000000
-0.690758 1.000000 0.000000
-0.889327 1.000000 0.000000
-0.989992 1.000000 0.000000
-0.981674 1.000000 0.000000
-0.865287 1.000000 0.000000
-0.653644 1.000000 0.000000
-0.370043 1.000000 0.000000
-0.045706 1.000000 0.000000
0.283662 1.000000 0.000000
0.581803 1.000000 0.000000
0.815896 1.000000 0.000000
0.960170 1.000000 0.000000
0.998743 1.000000 0.000000
0.927368 1.000000 0.000000
0.753902 1.000000 0.000000
0.497443 1.000000 0.000000
0.186222 1.000000 0.000000
-0.145500 1.000000 0.000000
-0.461204 1.000000 0.000000
-0.726136 1.000000 0.000000
-0.911130 1.000000 0.000000
-0.995822 1.000000 0.000000
-0.970887 1.000000 0.000000
1.000000 1.000000 0.000000
0.944957 1.000000 0.000000
0.785887 1.000000 0.000000
0.540302 1.000000 0.000000
0.235238 1.000000 0.000000
-0.095724 1.000000 0.000000
-0.416147 1.000000 0.000000
-0.690758 1.000000 0.000000
-0.889327 1.000000 0.000000
-0.989992 1.000000 0.000000
-0.981674 1.000000 0.000000
-0.865287 1.000000 0.000000
-0.653644 1.000000 0.000000
-0.370043 1.000000 0.000000
-0.045706 1.000000 0.000000
0.283662 1.000000 0.000000
0.581803 1.000000 0.000000
0.815896 1.000000 0.000000
0.960170 1.000000 0.000000
0.998743 1.000000 0.000000
0.927368 1.000000 0.000000
0.753902 1.000000 0.000000
0.497443 1.000000 0.000000
0.186222 1.000000 0.000000
-0.145500 1.000000 0.000000
-0.461204 1.000000 0.000000
-0.726136 1.000000 0.000000
-0.911130 1.000000 0.000000
-0.995822 1.000000 0.000000
-0.970887 1.000000 0.000000
1.000000 1.000000 0.000000
0.944957 1.000000 0.000000
0.785887 1.000000 0.000000
0.540302 1.000000 0.000000
0.235238 1.000000 0.000000
-0.095724 1.000000 0.000000
-0.416147 1.000000 0.000000
-0.690758 1.000000 0.000000
-0.889327 1.000000 0.000000
-0.989992 1.000000 0.000000
-0.981674 1.000000 0.000000
-0.865287 1.000000 0.000000
-0.653644 1.000000 0.000000
-0.370043 1.000000 0.000000
-0.045706 1.000000 0.000000
0.283662 1.000000 0.000000
0.581803 1.000000 0.000000
0.815896 1.000000 0.000000
0.960170 1.000000 0.000000
0.998743 1.000000 0.000000
0.927368 1.000000 0.000000
0.753902 1.000000 0.000000
0.497443 1.000000 0.000000
0.186222 1.000000 0.000000
-0.145500 1.000000 0.000000
-0.461204 1.000000 0.000000
-0.726136 1.000000 0.000000
-0.911130 1.000000 0.000000
-0.995822 1.000000 0.000000
-0.970887 1.000000 0.000000
1.000000 1.000000 0.000000
0.944957 1.000000 0.000000
0.785887 1.000000 0.000000
0.540302 1.000000 0.000000
0.235238 1.000000 0.000000
-0.095724 1.000000 0.000000
-0.416147 1.000000 0.000000
-0.690758 1.000000 0.000000
-0.889327 1.000000 0.000000
-0.989992 1.000000 0.000000
-0.981674 1.000000 0.000000
-0.865287 1.000000 0.000000
-0.653644 1.000000 0.000000
-0.370043 1.000000 0.000000
-0.045706 1.000000 0.000000
0.283662 1.000000 0.000000
0.581803 1.000000 0.000000
0.815896 1.000000 0.000000
0.960170 1.000000 0.000000
0.998743 1.000000 0.000000
0.927368 1.000000 0.000000
0.753902 1.000000 0.000000
0.497443 1.000000 0.000000
0.186222 1.000000 0.000000
-0.145500 1.000000 0.000000
-0.461204 1.000000 0.000000
-0.726136 1.000000 0.000000
-0.911130 1.000000 0.000000
-0.995822 1.000000 0.000000
-0.970887 1.000000 0.000000
1.000000 1.000000 0.000000
0.944957 1.000000 0.000000
0.785887 1.000000 0.000000
0.540302 1.000000 0.000000
0.235238 1.000000 0.000000
-0.095724 1.000000 0.000000
-0.416147 1.000000 0.000000
-0.690758 1.000000 0.000000
-0.889327 1.000000 0.000000
-0.989992 1.000000 0.000000
-0.981674 1.000000 0.000000
-0.865287 1.000000 0.000000
-0.653644 1.000000 0.000000
-0.370043 1.000000 0.000000
-0.045706 1.000000 0.000000
0.283662 1.000000 0.000000
0.581803 1.000000 0.000000
0.815896 1.000000 0.000000
0.960170 1.000000 0.000000
0.998743 1.000000 0.000000
0.927368 1.000000 0.000000
0.753902 1.000000 0.000000
0.497443 1.000000 0.000000
0.186222 1.000000 0.000000
-0.145500 1.000000 0.000000
-0.461204 1.000000 0.000000
-0.726136 1.000000 0.000000
-0.911130 1.000000 0.000000
-0.995822 1.000000 0.000000
-0.970887 1.000000 0.000000
1.000000 1.000000 0.000000
0.944957 1.000000 0.000000
0.785887 1.000000 0.000000
0.540302 1.000000 0.000000
0.235238 1.000000 0.000000
-0.095724 1.000000 0.000000
-0.416147 1.000000 0.000000
-0.690758 1.000000 0.000000
-0.889327 1.000000 0.000000
-0.989992 1.000000 0.000000
-0.981674 1.000000 0.000000
-0.865287 1.000000 0.000000
-0.653644 1.000000 0.000000
-0.370043 1.000000 0.000000
-0.045706 1.000000 0.000000
0.283662 1.000000 0.000000
0.581803 1.000000 0.000000
0.815896 1.000000 0.000000
0.960170 1.000000 0.000000
0.998743 1.000000 0.000000
0.927368 1.000000 0.000000
0.753902 1.000000 0.000000
0.497443 1.000000 0.000000
0.186222 1.000000 0.000000
-0.145500 1.000000 0.000000
-0.461204 1.000000 0.000000
-0.726136 1.000000 0.000000
-0.911130 1.000000 0.000000
-0.995822 1.000000 0.000000
-0.970887 1.000000 0.000000
1.000000 1.000000 0.000000
0.944957 1.000000 0.000000
0.785887 1.000000 0.000000
0.540302 1.000000 0.000000
0.235238 1.000000 0.000000
-0.095724 1.000000 0.000000
-0.416147 1.000000 0.000000
-0.690758 1.000000 0.000000
-0.889327 1.000000 0.000000
-0.989992 1.000000 0.000000
-0.981674 1.000000 0.000000
-0.865287 1.000000 0.000000
-0.653644 1.000000 0.000000
-0.370043 1.000000 0.000000
-0.045706 1.000000 0.000000
0.283662 1.000000 0.000000
0.581803 1.000000 0.000000
0.815896 1.000000 0.000000
0.960170 1.000000 0.000000
0.998743 1.000000 0.000000
0.927368 1.000000 0.000000
0.753902 1.000000 0.000000
0.497443 1.000000 0.000000
0.186222 1.000000 0.000000
-0.145500 1.000000 0.000000
-0.461204 1.000000 0.000000
-0.726136 1.000000 0.000000
-0.911130 1.000000 0.000000
-0.995822 1.000000 0.000000
-0.970887 1.000000 0.000000
1.000000 1.000000 0.000000
0.944957 1.000000 0.000000
0.785887 1.000000 0.000000
0.540302 1.000000 0.000000
0.235238 1.000000 0.000000
-0.095724 1.000000 0.000000
-0.416147 1.000000 0.000000
-0.690758 1.000000 0.000000
-0.889327 1.000000 0.000000
-0.989992 1.000000 0.000000
-0.981674 1.000000 0.000000
-0.865287 1.000000 0.000000
-0.653644 1.000000 0.000000
-0.370043 1.000000 0.000000
-0.045706 1.000000 0.000000
0.283662 1.000000 0.000000
0.581803 1.000000 0.000000
0.815896 1.000000 0.000000
0.960170 1.000000 0.000000
0.998743 1.000000 0.000000
0.927368 1.000000 0.000000
0.753902 1.000000 0.000000
0.497443 1.000000 0.000000
0.186222 1.000000 0.000000
-0.145500 1.000000 0.000000
-0.461204 1.000000 0.000000
-0.726136 1.000000 0.000000
-0.911130 1.000000 0.000000
-0.995822 1.000000 0.000000
-0.970887 1.000000 0.000000
1.000000 1.000000 0.000000
0.944957 1.000000 0.000000
0.785887 1.000000 0.000000
0.540302 1.000000 0.000000
0.235238 1.000000 0.000000
-0.095724 1.000000 0.000000
-0.416147 1.000000 0.000000
-0.690758 1.000000 0.000000
-0.889327 1.000000 0.000000
-0.989992 1.000000 0.000000
-0.981674 1.000000 0.000000
-0.865287 1.000000 0.000000
-0.653644 1.000000 0.000000
-0.370043 1.000000 0.000000
-0.045706 1.000000 0.000000
0.283662 1.000000 0.000000
0.581803 1.000000 0.000000
0.815896 1.000000 0.000000
0.960170 1.000000 0.000000
0.998743 1.000000 0.000000
0.927368 1.000000 0.000000
0.753902 1.000000 0.000000
0.497443 1.000000 0.000000
0.186222 1.000000 0.000000
-0.145500 1.000000 0.000000
-0.461204 1.000000 0.000000
-0.726136 1.000000 0.000000
-0.911130 1.000000 0.000000
-0.995822 1.000000 0.000000
-0.970887 1.000000 0.000000
1.000000 1.000000 0.000000
0.944957 1.000000 0.000000
0.785887 1.000000 0.000000
0.540302 1.000000 0.000000
0.235238 1.000000 0.000000
-0.095724 1.000000 0.000000
-0.416147 1.000000 0.000000
-0.690758 1.000000 0.000000
-0.889327 1.000000 0.000000
-0.989992 1.000000 0.000000
-0.981674 1.000000 0.000000
-0.865287 1.000000 0.000000
-0.653644 1.000000 0.000000
-0.370043 1.000000 0.000000
-0.045706 1.000000 0.000000
0.283662 1.000000 0.000000
0.581803 1.000000 0.000000
0.815896 1.000000 0.000000
0.960170 1.000000 0.000000
0.998743 1.000000 0.000000
0.927368 1.000000 0.000000
0.753902 1.000000 0.000000
0.497443 1.000000 0.000000
0.186222 1.000000 0.000000
-0.145500 1.000000 0.000000
-0.461204 1.000000 0.000000
-0.726136 1.000000 0.000000
-0.911130 1.000000 0.000000
-0.995822 1.000000 0.000000
-0.970887 1.000000 0.000000
1.000000 1.000000 0.000000
0.944957 1.000000 0.000000
0.785887 1.000000 0.000000
0.540302 1.000000 0.000000